
 displacements (vx,vy,vz) for set TIPMARKER and time  0.1000000E+00

         4  1.680956E-06  3.041060E-05  1.022954E-08

 displacements (vx,vy,vz) for set TIPMARKER and time  0.2000000E+00

         4  5.448274E-06  1.401902E-04  2.945058E-08

 displacements (vx,vy,vz) for set TIPMARKER and time  0.3000000E+00

         4  1.057515E-05  3.670184E-04  6.338125E-08

 displacements (vx,vy,vz) for set TIPMARKER and time  0.4000000E+00

         4  1.616465E-05  7.508487E-04  1.226897E-07

 displacements (vx,vy,vz) for set TIPMARKER and time  0.5000000E+00

         4  2.135191E-05  1.337143E-03  2.098012E-07

 displacements (vx,vy,vz) for set TIPMARKER and time  0.6000000E+00

         4  2.535457E-05  2.133715E-03  3.238409E-07

 displacements (vx,vy,vz) for set TIPMARKER and time  0.7000000E+00

         4  2.742297E-05  3.076447E-03  4.636382E-07

 displacements (vx,vy,vz) for set TIPMARKER and time  0.8000000E+00

         4  2.932145E-05  4.064623E-03  6.235600E-07

 displacements (vx,vy,vz) for set TIPMARKER and time  0.9500000E+00

         4  3.540011E-05  5.308224E-03  8.559710E-07

 displacements (vx,vy,vz) for set TIPMARKER and time  0.1100000E+01

         4  4.192399E-05  5.825860E-03  1.003711E-06

 displacements (vx,vy,vz) for set TIPMARKER and time  0.1250000E+01

         4  4.574366E-05  5.239618E-03  9.843118E-07

 displacements (vx,vy,vz) for set TIPMARKER and time  0.1400000E+01

         4  4.463335E-05  3.504528E-03  7.578837E-07

 displacements (vx,vy,vz) for set TIPMARKER and time  0.1550000E+01

         4  4.135305E-05  9.721577E-04  3.703714E-07

 displacements (vx,vy,vz) for set TIPMARKER and time  0.1700000E+01

         4  4.245122E-05 -1.632854E-03 -6.126435E-08

 displacements (vx,vy,vz) for set TIPMARKER and time  0.1850000E+01

         4  4.698755E-05 -3.427937E-03 -4.029684E-07

 displacements (vx,vy,vz) for set TIPMARKER and time  0.2000000E+01

         4  5.285363E-05 -3.705481E-03 -5.265673E-07

 displacements (vx,vy,vz) for set TIPMARKER and time  0.2150000E+01

         4  5.773635E-05 -2.180250E-03 -3.653337E-07

 displacements (vx,vy,vz) for set TIPMARKER and time  0.2300000E+01

         4  6.320667E-05  8.475977E-04  6.711609E-08

 displacements (vx,vy,vz) for set TIPMARKER and time  0.2450000E+01

         4  7.324446E-05  4.512911E-03  6.703891E-07

 displacements (vx,vy,vz) for set TIPMARKER and time  0.2600000E+01

         4  8.406870E-05  7.665814E-03  1.254256E-06

 displacements (vx,vy,vz) for set TIPMARKER and time  0.2750000E+01

         4  9.140620E-05  9.234140E-03  1.618506E-06

 displacements (vx,vy,vz) for set TIPMARKER and time  0.2900000E+01

         4  9.199861E-05  8.586102E-03  1.625410E-06

 displacements (vx,vy,vz) for set TIPMARKER and time  0.3050000E+01

         4  8.835049E-05  5.800905E-03  1.255569E-06

 displacements (vx,vy,vz) for set TIPMARKER and time  0.3200000E+01

         4  8.700841E-05  1.672218E-03  6.224556E-07

 displacements (vx,vy,vz) for set TIPMARKER and time  0.3350000E+01

         4  8.757149E-05 -2.533873E-03 -8.234458E-08

 displacements (vx,vy,vz) for set TIPMARKER and time  0.3500000E+01

         4  8.904821E-05 -5.464347E-03 -6.362558E-07

 displacements (vx,vy,vz) for set TIPMARKER and time  0.3650000E+01

         4  9.028465E-05 -6.138719E-03 -8.561236E-07

 displacements (vx,vy,vz) for set TIPMARKER and time  0.3800000E+01

         4  9.383669E-05 -4.295051E-03 -6.519261E-07

 displacements (vx,vy,vz) for set TIPMARKER and time  0.3950000E+01

         4  1.041589E-04 -4.750686E-04 -6.622758E-08

 displacements (vx,vy,vz) for set TIPMARKER and time  0.4100000E+01

         4  1.173768E-04  4.129394E-03  7.148562E-07

 displacements (vx,vy,vz) for set TIPMARKER and time  0.4250000E+01

         4  1.285337E-04  8.057135E-03  1.439376E-06

 displacements (vx,vy,vz) for set TIPMARKER and time  0.4400000E+01

         4  1.334338E-04  1.006914E-02  1.870126E-06

 displacements (vx,vy,vz) for set TIPMARKER and time  0.4550000E+01

         4  1.335532E-04  9.544348E-03  1.875729E-06

 displacements (vx,vy,vz) for set TIPMARKER and time  0.4700000E+01

         4  1.343002E-04  6.676546E-03  1.470268E-06

 displacements (vx,vy,vz) for set TIPMARKER and time  0.4850000E+01

         4  1.347682E-04  2.409982E-03  7.828716E-07

 displacements (vx,vy,vz) for set TIPMARKER and time  0.5000000E+01

         4  1.339693E-04 -1.890543E-03  3.324452E-08

 displacements (vx,vy,vz) for set TIPMARKER and time  0.5150000E+01

         4  1.313123E-04 -4.893476E-03 -5.420710E-07

 displacements (vx,vy,vz) for set TIPMARKER and time  0.5300000E+01

         4  1.305378E-04 -5.720486E-03 -7.588272E-07

 displacements (vx,vy,vz) for set TIPMARKER and time  0.5450000E+01

         4  1.370932E-04 -4.219625E-03 -5.463823E-07

 displacements (vx,vy,vz) for set TIPMARKER and time  0.5600000E+01

         4  1.480649E-04 -9.790663E-04  9.183588E-09

 displacements (vx,vy,vz) for set TIPMARKER and time  0.5750000E+01

         4  1.591317E-04  2.906509E-03  7.141009E-07

 displacements (vx,vy,vz) for set TIPMARKER and time  0.5900000E+01

         4  1.661025E-04  6.208561E-03  1.336639E-06

 displacements (vx,vy,vz) for set TIPMARKER and time  0.6050000E+01

         4  1.700134E-04  7.968788E-03  1.693979E-06

 displacements (vx,vy,vz) for set TIPMARKER and time  0.6200000E+01

         4  1.752050E-04  7.789958E-03  1.704210E-06

 displacements (vx,vy,vz) for set TIPMARKER and time  0.6350000E+01

         4  1.795860E-04  5.908839E-03  1.386012E-06

 displacements (vx,vy,vz) for set TIPMARKER and time  0.6500000E+01

         4  1.811264E-04  3.062788E-03  8.602651E-07

 displacements (vx,vy,vz) for set TIPMARKER and time  0.6650000E+01

         4  1.786500E-04  2.058848E-04  3.028300E-07

 displacements (vx,vy,vz) for set TIPMARKER and time  0.6800000E+01

         4  1.759411E-04 -1.827673E-03 -1.055779E-07

 displacements (vx,vy,vz) for set TIPMARKER and time  0.6950000E+01

         4  1.788362E-04 -2.573341E-03 -2.431873E-07

 displacements (vx,vy,vz) for set TIPMARKER and time  0.7100000E+01

         4  1.853922E-04 -2.029313E-03 -1.027596E-07

 displacements (vx,vy,vz) for set TIPMARKER and time  0.7250000E+01

         4  1.924209E-04 -5.885884E-04  2.340407E-07

 displacements (vx,vy,vz) for set TIPMARKER and time  0.7400000E+01

         4  1.967934E-04  1.160949E-03  6.340170E-07

 displacements (vx,vy,vz) for set TIPMARKER and time  0.7550000E+01

         4  2.003595E-04  2.672275E-03  9.736499E-07

 displacements (vx,vy,vz) for set TIPMARKER and time  0.7700000E+01

         4  2.074210E-04  3.612247E-03  1.175964E-06

 displacements (vx,vy,vz) for set TIPMARKER and time  0.7850000E+01

         4  2.153948E-04  3.926223E-03  1.207552E-06

 displacements (vx,vy,vz) for set TIPMARKER and time  0.8000000E+01

         4  2.213274E-04  3.780087E-03  1.094683E-06

 displacements (vx,vy,vz) for set TIPMARKER and time  0.8150000E+01

         4  2.228790E-04  3.418576E-03  9.025456E-07

 displacements (vx,vy,vz) for set TIPMARKER and time  0.8300000E+01

         4  2.228966E-04  3.023455E-03  7.133432E-07

 displacements (vx,vy,vz) for set TIPMARKER and time  0.8450000E+01

         4  2.264051E-04  2.632946E-03  5.889677E-07

 displacements (vx,vy,vz) for set TIPMARKER and time  0.8600000E+01

         4  2.312822E-04  2.153859E-03  5.333908E-07

 displacements (vx,vy,vz) for set TIPMARKER and time  0.8750000E+01

         4  2.347803E-04  1.461478E-03  5.175525E-07

 displacements (vx,vy,vz) for set TIPMARKER and time  0.8900000E+01

         4  2.347036E-04  5.267614E-04  5.032670E-07

 displacements (vx,vy,vz) for set TIPMARKER and time  0.9050000E+01

         4  2.341660E-04 -4.984391E-04  4.797187E-07

 displacements (vx,vy,vz) for set TIPMARKER and time  0.9200000E+01

         4  2.384303E-04 -1.284990E-03  4.675608E-07

 displacements (vx,vy,vz) for set TIPMARKER and time  0.9350000E+01

         4  2.456415E-04 -1.437107E-03  4.912532E-07

 displacements (vx,vy,vz) for set TIPMARKER and time  0.9500000E+01

         4  2.530317E-04 -6.705165E-04  5.794199E-07

 displacements (vx,vy,vz) for set TIPMARKER and time  0.9650000E+01

         4  2.578866E-04  1.020928E-03  7.423934E-07

 displacements (vx,vy,vz) for set TIPMARKER and time  0.9800000E+01

         4  2.623088E-04  3.283659E-03  9.662336E-07

 displacements (vx,vy,vz) for set TIPMARKER and time  0.9950000E+01

         4  2.700548E-04  5.461588E-03  1.200695E-06

 displacements (vx,vy,vz) for set TIPMARKER and time  0.1010000E+02

         4  2.779006E-04  6.794014E-03  1.352202E-06

 displacements (vx,vy,vz) for set TIPMARKER and time  0.1025000E+02

         4  2.823297E-04  6.686616E-03  1.335592E-06

 displacements (vx,vy,vz) for set TIPMARKER and time  0.1040000E+02

         4  2.809017E-04  4.959150E-03  1.113290E-06

 displacements (vx,vy,vz) for set TIPMARKER and time  0.1055000E+02

         4  2.772033E-04  1.972804E-03  7.312125E-07

 displacements (vx,vy,vz) for set TIPMARKER and time  0.1070000E+02

         4  2.772108E-04 -1.431462E-03  3.071313E-07

 displacements (vx,vy,vz) for set TIPMARKER and time  0.1085000E+02

         4  2.801642E-04 -4.178156E-03 -2.256246E-08

 displacements (vx,vy,vz) for set TIPMARKER and time  0.1100000E+02

         4  2.844030E-04 -5.309141E-03 -1.337494E-07

 displacements (vx,vy,vz) for set TIPMARKER and time  0.1115000E+02

         4  2.880320E-04 -4.327328E-03  3.760858E-08

 displacements (vx,vy,vz) for set TIPMARKER and time  0.1130000E+02

         4  2.935800E-04 -1.404762E-03  4.752047E-07

 displacements (vx,vy,vz) for set TIPMARKER and time  0.1152500E+02

         4  3.110037E-04  4.426170E-03  1.332501E-06

 displacements (vx,vy,vz) for set TIPMARKER and time  0.1175000E+02

         4  3.248437E-04  8.700442E-03  1.911466E-06

 displacements (vx,vy,vz) for set TIPMARKER and time  0.1197500E+02

         4  3.236737E-04  8.601436E-03  1.774799E-06

 displacements (vx,vy,vz) for set TIPMARKER and time  0.1220000E+02

         4  3.248151E-04  4.157793E-03  1.024614E-06

 displacements (vx,vy,vz) for set TIPMARKER and time  0.1242500E+02

         4  3.259523E-04 -1.703163E-03  1.384213E-07

 displacements (vx,vy,vz) for set TIPMARKER and time  0.1265000E+02

         4  3.231449E-04 -5.208374E-03 -2.978374E-07

 displacements (vx,vy,vz) for set TIPMARKER and time  0.1287500E+02

         4  3.286959E-04 -4.280005E-03  3.920004E-08

 displacements (vx,vy,vz) for set TIPMARKER and time  0.1310000E+02

         4  3.445261E-04  1.979435E-04  9.201163E-07

 displacements (vx,vy,vz) for set TIPMARKER and time  0.1332500E+02

         4  3.573208E-04  5.142862E-03  1.733865E-06

 displacements (vx,vy,vz) for set TIPMARKER and time  0.1355000E+02

         4  3.631522E-04  7.502423E-03  1.950316E-06

 displacements (vx,vy,vz) for set TIPMARKER and time  0.1377500E+02

         4  3.714813E-04  6.212590E-03  1.489895E-06

 displacements (vx,vy,vz) for set TIPMARKER and time  0.1400000E+02

         4  3.745593E-04  2.588894E-03  6.918286E-07

 displacements (vx,vy,vz) for set TIPMARKER and time  0.1422500E+02

         4  3.678152E-04 -8.781990E-04  8.451607E-08

 displacements (vx,vy,vz) for set TIPMARKER and time  0.1445000E+02

         4  3.718015E-04 -2.332728E-03  7.145377E-08

 displacements (vx,vy,vz) for set TIPMARKER and time  0.1467500E+02

         4  3.811855E-04 -1.539059E-03  5.733703E-07

 displacements (vx,vy,vz) for set TIPMARKER and time  0.1490000E+02

         4  3.863083E-04  4.381965E-04  1.185126E-06

 displacements (vx,vy,vz) for set TIPMARKER and time  0.1512500E+02

         4  3.950399E-04  2.315697E-03  1.538490E-06

 displacements (vx,vy,vz) for set TIPMARKER and time  0.1535000E+02

         4  4.081242E-04  3.471197E-03  1.488689E-06

 displacements (vx,vy,vz) for set TIPMARKER and time  0.1557500E+02

         4  4.151482E-04  3.944136E-03  1.154279E-06

 displacements (vx,vy,vz) for set TIPMARKER and time  0.1580000E+02

         4  4.163423E-04  3.869505E-03  8.085813E-07

 displacements (vx,vy,vz) for set TIPMARKER and time  0.1602500E+02

         4  4.229699E-04  3.087124E-03  6.589618E-07

 displacements (vx,vy,vz) for set TIPMARKER and time  0.1625000E+02

         4  4.268746E-04  1.382308E-03  6.805903E-07

 displacements (vx,vy,vz) for set TIPMARKER and time  0.1647500E+02

         4  4.219020E-04 -8.713289E-04  7.492004E-07

 displacements (vx,vy,vz) for set TIPMARKER and time  0.1670000E+02

         4  4.278684E-04 -2.474628E-03  8.476687E-07

 displacements (vx,vy,vz) for set TIPMARKER and time  0.1692500E+02

         4  4.392173E-04 -2.047463E-03  9.815254E-07

 displacements (vx,vy,vz) for set TIPMARKER and time  0.1715000E+02

         4  4.465418E-04  8.013713E-04  1.166077E-06

 displacements (vx,vy,vz) for set TIPMARKER and time  0.1737500E+02

         4  4.572108E-04  4.739583E-03  1.376117E-06

 displacements (vx,vy,vz) for set TIPMARKER and time  0.1760000E+02

         4  4.698128E-04  7.265052E-03  1.456001E-06

 displacements (vx,vy,vz) for set TIPMARKER and time  0.1782500E+02

         4  4.728357E-04  6.368630E-03  1.239921E-06

 displacements (vx,vy,vz) for set TIPMARKER and time  0.1805000E+02

         4  4.681237E-04  2.146237E-03  7.788244E-07

 displacements (vx,vy,vz) for set TIPMARKER and time  0.1827500E+02

         4  4.702990E-04 -2.932540E-03  3.723780E-07

 displacements (vx,vy,vz) for set TIPMARKER and time  0.1850000E+02

         4  4.748905E-04 -5.528229E-03  3.265975E-07

 displacements (vx,vy,vz) for set TIPMARKER and time  0.1872500E+02

         4  4.764700E-04 -3.735539E-03  7.490442E-07

 displacements (vx,vy,vz) for set TIPMARKER and time  0.1895000E+02

         4  4.914937E-04  1.466019E-03  1.462931E-06

 displacements (vx,vy,vz) for set TIPMARKER and time  0.1917500E+02

         4  5.081597E-04  6.743262E-03  1.980010E-06

 displacements (vx,vy,vz) for set TIPMARKER and time  0.1940000E+02

         4  5.129199E-04  8.644504E-03  1.890039E-06

 displacements (vx,vy,vz) for set TIPMARKER and time  0.1962500E+02

         4  5.143913E-04  5.961827E-03  1.221388E-06

 displacements (vx,vy,vz) for set TIPMARKER and time  0.1985000E+02

         4  5.166547E-04  5.327251E-04  4.044516E-07

 displacements (vx,vy,vz) for set TIPMARKER and time  0.2007500E+02

         4  5.150904E-04 -4.077066E-03 -1.339458E-08

 displacements (vx,vy,vz) for set TIPMARKER and time  0.2030000E+02

         4  5.150371E-04 -5.031731E-03  2.846930E-07

 displacements (vx,vy,vz) for set TIPMARKER and time  0.2052500E+02

         4  5.278864E-04 -2.052238E-03  1.140785E-06

 displacements (vx,vy,vz) for set TIPMARKER and time  0.2075000E+02

         4  5.421125E-04  2.621737E-03  1.962626E-06

 displacements (vx,vy,vz) for set TIPMARKER and time  0.2097500E+02

         4  5.460717E-04  5.955882E-03  2.180405E-06

 displacements (vx,vy,vz) for set TIPMARKER and time  0.2120000E+02

         4  5.551847E-04  6.180819E-03  1.699134E-06

 displacements (vx,vy,vz) for set TIPMARKER and time  0.2142500E+02

         4  5.617078E-04  3.725361E-03  8.508349E-07

 displacements (vx,vy,vz) for set TIPMARKER and time  0.2165000E+02

         4  5.588219E-04  5.290934E-04  2.030959E-07

 displacements (vx,vy,vz) for set TIPMARKER and time  0.2187500E+02

         4  5.598384E-04 -1.513080E-03  1.944731E-07

 displacements (vx,vy,vz) for set TIPMARKER and time  0.2210000E+02

         4  5.679403E-04 -1.720487E-03  7.862102E-07

 displacements (vx,vy,vz) for set TIPMARKER and time  0.2232500E+02

         4  5.739800E-04 -6.551166E-04  1.523087E-06

 displacements (vx,vy,vz) for set TIPMARKER and time  0.2255000E+02

         4  5.787248E-04  7.315781E-04  1.922971E-06

 displacements (vx,vy,vz) for set TIPMARKER and time  0.2277500E+02

         4  5.912477E-04  1.914790E-03  1.805227E-06

 displacements (vx,vy,vz) for set TIPMARKER and time  0.2300000E+02

         4  6.015212E-04  2.894074E-03  1.316844E-06

 displacements (vx,vy,vz) for set TIPMARKER and time  0.2322500E+02

         4  6.013604E-04  3.667043E-03  8.154373E-07

 displacements (vx,vy,vz) for set TIPMARKER and time  0.2345000E+02

         4  6.081707E-04  3.796979E-03  6.416243E-07

 displacements (vx,vy,vz) for set TIPMARKER and time  0.2367500E+02

         4  6.142360E-04  2.666363E-03  8.009759E-07

 displacements (vx,vy,vz) for set TIPMARKER and time  0.2390000E+02

         4  6.116893E-04  2.558366E-04  1.082340E-06

 displacements (vx,vy,vz) for set TIPMARKER and time  0.2412500E+02

         4  6.135209E-04 -2.332635E-03  1.306740E-06

 displacements (vx,vy,vz) for set TIPMARKER and time  0.2435000E+02

         4  6.230592E-04 -3.315740E-03  1.403016E-06

 displacements (vx,vy,vz) for set TIPMARKER and time  0.2457500E+02

         4  6.317625E-04 -1.518636E-03  1.407763E-06

 displacements (vx,vy,vz) for set TIPMARKER and time  0.2480000E+02

         4  6.399931E-04  2.456652E-03  1.402420E-06

 displacements (vx,vy,vz) for set TIPMARKER and time  0.2502500E+02

         4  6.542307E-04  6.250855E-03  1.397931E-06

 displacements (vx,vy,vz) for set TIPMARKER and time  0.2525000E+02

         4  6.621932E-04  7.200393E-03  1.284977E-06

 displacements (vx,vy,vz) for set TIPMARKER and time  0.2547500E+02

         4  6.561389E-04  4.284614E-03  1.019788E-06

 displacements (vx,vy,vz) for set TIPMARKER and time  0.2570000E+02

         4  6.565056E-04 -9.069973E-04  7.778716E-07

 displacements (vx,vy,vz) for set TIPMARKER and time  0.2592500E+02

         4  6.601437E-04 -5.051386E-03  7.564343E-07

 displacements (vx,vy,vz) for set TIPMARKER and time  0.2615000E+02

         4  6.617639E-04 -5.325753E-03  1.057543E-06

 displacements (vx,vy,vz) for set TIPMARKER and time  0.2637500E+02

         4  6.726966E-04 -1.423533E-03  1.587022E-06

 displacements (vx,vy,vz) for set TIPMARKER and time  0.2660000E+02

         4  6.902568E-04  4.144953E-03  2.001895E-06

 displacements (vx,vy,vz) for set TIPMARKER and time  0.2682500E+02

         4  7.002484E-04  7.739202E-03  1.947992E-06

 displacements (vx,vy,vz) for set TIPMARKER and time  0.2705000E+02

         4  7.018836E-04  7.080207E-03  1.391675E-06

 displacements (vx,vy,vz) for set TIPMARKER and time  0.2727500E+02

         4  7.054460E-04  2.764032E-03  6.897977E-07

 displacements (vx,vy,vz) for set TIPMARKER and time  0.2750000E+02

         4  7.056733E-04 -2.261423E-03  3.171075E-07

 displacements (vx,vy,vz) for set TIPMARKER and time  0.2772500E+02

         4  7.002749E-04 -4.801950E-03  5.643288E-07

 displacements (vx,vy,vz) for set TIPMARKER and time  0.2795000E+02

         4  7.090378E-04 -3.548257E-03  1.346779E-06

 displacements (vx,vy,vz) for set TIPMARKER and time  0.2817500E+02

         4  7.231125E-04  2.591059E-04  2.131296E-06

 displacements (vx,vy,vz) for set TIPMARKER and time  0.2840000E+02

         4  7.303697E-04  3.961476E-03  2.357417E-06

 displacements (vx,vy,vz) for set TIPMARKER and time  0.2862500E+02

         4  7.390357E-04  5.410704E-03  1.883062E-06

 displacements (vx,vy,vz) for set TIPMARKER and time  0.2885000E+02

         4  7.482672E-04  4.256116E-03  1.031517E-06

 displacements (vx,vy,vz) for set TIPMARKER and time  0.2907500E+02

         4  7.497059E-04  1.779432E-03  3.721536E-07

 displacements (vx,vy,vz) for set TIPMARKER and time  0.2930000E+02

         4  7.481166E-04 -3.424639E-04  3.577194E-07

 displacements (vx,vy,vz) for set TIPMARKER and time  0.2952500E+02

         4  7.547215E-04 -1.224163E-03  9.981488E-07

 displacements (vx,vy,vz) for set TIPMARKER and time  0.2975000E+02

         4  7.612650E-04 -1.044548E-03  1.819317E-06

 displacements (vx,vy,vz) for set TIPMARKER and time  0.2997500E+02

         4  7.612871E-04 -4.169217E-04  2.255152E-06

 displacements (vx,vy,vz) for set TIPMARKER and time  0.3000000E+02

         4  7.614675E-04 -3.412321E-04  2.263826E-06
