
 displacements (vx,vy,vz) for set TIPMARKER and time  0.1000000E+00

         4  2.613094E-06  4.265399E-05  1.466873E-08

 displacements (vx,vy,vz) for set TIPMARKER and time  0.2000000E+00

         4  7.552251E-06  1.887466E-04  3.908899E-08

 displacements (vx,vy,vz) for set TIPMARKER and time  0.3000000E+00

         4  1.287005E-05  4.654768E-04  7.711265E-08

 displacements (vx,vy,vz) for set TIPMARKER and time  0.4000000E+00

         4  1.657811E-05  8.848538E-04  1.382339E-07

 displacements (vx,vy,vz) for set TIPMARKER and time  0.5000000E+00

         4  1.741791E-05  1.453601E-03  2.182820E-07

 displacements (vx,vy,vz) for set TIPMARKER and time  0.6000000E+00

         4  2.006080E-05  2.121345E-03  3.219988E-07

 displacements (vx,vy,vz) for set TIPMARKER and time  0.7000000E+00

         4  2.444101E-05  2.752634E-03  4.406938E-07

 displacements (vx,vy,vz) for set TIPMARKER and time  0.8000000E+00

         4  2.889256E-05  3.209331E-03  5.491117E-07

 displacements (vx,vy,vz) for set TIPMARKER and time  0.9000000E+00

         4  3.180173E-05  3.395736E-03  6.147594E-07

 displacements (vx,vy,vz) for set TIPMARKER and time  0.1000000E+01

         4  3.184326E-05  3.235581E-03  6.165370E-07

 displacements (vx,vy,vz) for set TIPMARKER and time  0.1100000E+01

         4  3.256791E-05  2.719577E-03  5.630995E-07

 displacements (vx,vy,vz) for set TIPMARKER and time  0.1200000E+01

         4  3.544250E-05  1.949895E-03  4.631485E-07

 displacements (vx,vy,vz) for set TIPMARKER and time  0.1300000E+01

         4  3.906420E-05  1.087018E-03  3.289117E-07

 displacements (vx,vy,vz) for set TIPMARKER and time  0.1400000E+01

         4  4.159656E-05  2.854724E-04  1.878617E-07

 displacements (vx,vy,vz) for set TIPMARKER and time  0.1500000E+01

         4  4.164501E-05 -3.121378E-04  6.638334E-08

 displacements (vx,vy,vz) for set TIPMARKER and time  0.1600000E+01

         4  4.184925E-05 -5.961682E-04 -1.020691E-08

 displacements (vx,vy,vz) for set TIPMARKER and time  0.1750000E+01

         4  4.736020E-05 -4.680089E-04 -1.338744E-08

 displacements (vx,vy,vz) for set TIPMARKER and time  0.1900000E+01

         4  5.294818E-05  1.117052E-04  8.494842E-08

 displacements (vx,vy,vz) for set TIPMARKER and time  0.2050000E+01

         4  5.396839E-05  8.762159E-04  2.096278E-07

 displacements (vx,vy,vz) for set TIPMARKER and time  0.2200000E+01

         4  6.034154E-05  1.596512E-03  3.448425E-07

 displacements (vx,vy,vz) for set TIPMARKER and time  0.2350000E+01

         4  6.871415E-05  2.195774E-03  4.705766E-07

 displacements (vx,vy,vz) for set TIPMARKER and time  0.2500000E+01

         4  7.275451E-05  2.716791E-03  5.632858E-07

 displacements (vx,vy,vz) for set TIPMARKER and time  0.2650000E+01

         4  7.502118E-05  3.095052E-03  6.341486E-07

 displacements (vx,vy,vz) for set TIPMARKER and time  0.2800000E+01

         4  8.050946E-05  3.143118E-03  6.792606E-07

 displacements (vx,vy,vz) for set TIPMARKER and time  0.2950000E+01

         4  8.412502E-05  2.701917E-03  6.414291E-07

 displacements (vx,vy,vz) for set TIPMARKER and time  0.3100000E+01

         4  8.163692E-05  1.736521E-03  4.952592E-07

 displacements (vx,vy,vz) for set TIPMARKER and time  0.3250000E+01

         4  8.528810E-05  4.931422E-04  3.044793E-07

 displacements (vx,vy,vz) for set TIPMARKER and time  0.3400000E+01

         4  9.086802E-05 -5.397129E-04  1.224676E-07

 displacements (vx,vy,vz) for set TIPMARKER and time  0.3550000E+01

         4  9.264747E-05 -9.356057E-04  1.999650E-08

 displacements (vx,vy,vz) for set TIPMARKER and time  0.3700000E+01

         4  9.549428E-05 -5.300231E-04  6.131120E-08

 displacements (vx,vy,vz) for set TIPMARKER and time  0.3850000E+01

         4  1.027811E-04  4.973381E-04  2.338764E-07

 displacements (vx,vy,vz) for set TIPMARKER and time  0.4000000E+01

         4  1.086243E-04  1.688944E-03  4.544969E-07

 displacements (vx,vy,vz) for set TIPMARKER and time  0.4150000E+01

         4  1.099345E-04  2.601643E-03  6.316646E-07

 displacements (vx,vy,vz) for set TIPMARKER and time  0.4300000E+01

         4  1.168508E-04  3.029763E-03  7.357194E-07

 displacements (vx,vy,vz) for set TIPMARKER and time  0.4450000E+01

         4  1.238115E-04  3.000715E-03  7.509692E-07

 displacements (vx,vy,vz) for set TIPMARKER and time  0.4600000E+01

         4  1.249003E-04  2.684634E-03  6.929781E-07

 displacements (vx,vy,vz) for set TIPMARKER and time  0.4750000E+01

         4  1.269333E-04  2.225662E-03  6.113280E-07

 displacements (vx,vy,vz) for set TIPMARKER and time  0.4900000E+01

         4  1.316100E-04  1.629484E-03  5.261043E-07

 displacements (vx,vy,vz) for set TIPMARKER and time  0.5050000E+01

         4  1.337694E-04  8.751600E-04  4.187182E-07

 displacements (vx,vy,vz) for set TIPMARKER and time  0.5200000E+01

         4  1.331022E-04  5.405488E-05  2.886222E-07

 displacements (vx,vy,vz) for set TIPMARKER and time  0.5350000E+01

         4  1.386535E-04 -5.915719E-04  1.938532E-07

 displacements (vx,vy,vz) for set TIPMARKER and time  0.5500000E+01

         4  1.450848E-04 -7.336560E-04  1.702492E-07

 displacements (vx,vy,vz) for set TIPMARKER and time  0.5650000E+01

         4  1.468240E-04 -1.726115E-04  2.417960E-07

 displacements (vx,vy,vz) for set TIPMARKER and time  0.5800000E+01

         4  1.519844E-04  9.690450E-04  4.297691E-07

 displacements (vx,vy,vz) for set TIPMARKER and time  0.5950000E+01

         4  1.597800E-04  2.276735E-03  6.705647E-07

 displacements (vx,vy,vz) for set TIPMARKER and time  0.6100000E+01

         4  1.642506E-04  3.236588E-03  8.554322E-07

 displacements (vx,vy,vz) for set TIPMARKER and time  0.6250000E+01

         4  1.661456E-04  3.490643E-03  9.161219E-07

 displacements (vx,vy,vz) for set TIPMARKER and time  0.6400000E+01

         4  1.723299E-04  3.029287E-03  8.548852E-07

 displacements (vx,vy,vz) for set TIPMARKER and time  0.6550000E+01

         4  1.771558E-04  2.142242E-03  6.995363E-07

 displacements (vx,vy,vz) for set TIPMARKER and time  0.6700000E+01

         4  1.755840E-04  1.202995E-03  5.130593E-07

 displacements (vx,vy,vz) for set TIPMARKER and time  0.6850000E+01

         4  1.781582E-04  4.743102E-04  3.845371E-07

 displacements (vx,vy,vz) for set TIPMARKER and time  0.7000000E+01

         4  1.830164E-04  1.800275E-05  3.277268E-07

 displacements (vx,vy,vz) for set TIPMARKER and time  0.7150000E+01

         4  1.849367E-04 -2.280489E-04  3.161792E-07

 displacements (vx,vy,vz) for set TIPMARKER and time  0.7300000E+01

         4  1.871177E-04 -2.827382E-04  3.385260E-07

 displacements (vx,vy,vz) for set TIPMARKER and time  0.7450000E+01

         4  1.946931E-04 -6.033634E-05  4.058455E-07

 displacements (vx,vy,vz) for set TIPMARKER and time  0.7600000E+01

         4  2.014789E-04  5.466528E-04  5.148634E-07

 displacements (vx,vy,vz) for set TIPMARKER and time  0.7750000E+01

         4  2.022012E-04  1.520219E-03  6.544565E-07

 displacements (vx,vy,vz) for set TIPMARKER and time  0.7900000E+01

         4  2.081921E-04  2.604912E-03  8.270538E-07

 displacements (vx,vy,vz) for set TIPMARKER and time  0.8050000E+01

         4  2.149211E-04  3.372964E-03  9.592258E-07

 displacements (vx,vy,vz) for set TIPMARKER and time  0.8200000E+01

         4  2.167914E-04  3.455422E-03  9.713125E-07

 displacements (vx,vy,vz) for set TIPMARKER and time  0.8350000E+01

         4  2.186921E-04  2.761988E-03  8.532389E-07

 displacements (vx,vy,vz) for set TIPMARKER and time  0.8500000E+01

         4  2.240931E-04  1.556618E-03  6.535760E-07

 displacements (vx,vy,vz) for set TIPMARKER and time  0.8650000E+01

         4  2.273325E-04  3.292495E-04  4.407092E-07

 displacements (vx,vy,vz) for set TIPMARKER and time  0.8800000E+01

         4  2.255888E-04 -4.747086E-04  2.942644E-07

 displacements (vx,vy,vz) for set TIPMARKER and time  0.8950000E+01

         4  2.298579E-04 -6.688885E-04  2.888838E-07

 displacements (vx,vy,vz) for set TIPMARKER and time  0.9100000E+01

         4  2.356582E-04 -3.530787E-04  3.938997E-07

 displacements (vx,vy,vz) for set TIPMARKER and time  0.9250000E+01

         4  2.377261E-04  2.234070E-04  5.379205E-07

 displacements (vx,vy,vz) for set TIPMARKER and time  0.9400000E+01

         4  2.425106E-04  8.554476E-04  6.825305E-07

 displacements (vx,vy,vz) for set TIPMARKER and time  0.9550000E+01

         4  2.510148E-04  1.481023E-03  8.020037E-07

 displacements (vx,vy,vz) for set TIPMARKER and time  0.9700000E+01

         4  2.566981E-04  2.112737E-03  8.804070E-07

 displacements (vx,vy,vz) for set TIPMARKER and time  0.9850000E+01

         4  2.578812E-04  2.698291E-03  9.223412E-07

 displacements (vx,vy,vz) for set TIPMARKER and time  0.1000000E+02

         4  2.633740E-04  3.049631E-03  9.433649E-07

 displacements (vx,vy,vz) for set TIPMARKER and time  0.1015000E+02

         4  2.681886E-04  2.915351E-03  9.037382E-07

 displacements (vx,vy,vz) for set TIPMARKER and time  0.1030000E+02

         4  2.674435E-04  2.170012E-03  7.721087E-07

 displacements (vx,vy,vz) for set TIPMARKER and time  0.1045000E+02

         4  2.699044E-04  9.725675E-04  5.907570E-07

 displacements (vx,vy,vz) for set TIPMARKER and time  0.1060000E+02

         4  2.753860E-04 -2.518308E-04  4.208344E-07

 displacements (vx,vy,vz) for set TIPMARKER and time  0.1075000E+02

         4  2.781237E-04 -1.011062E-03  3.257536E-07

 displacements (vx,vy,vz) for set TIPMARKER and time  0.1090000E+02

         4  2.789935E-04 -1.007913E-03  3.593705E-07

 displacements (vx,vy,vz) for set TIPMARKER and time  0.1105000E+02

         4  2.853434E-04 -2.987541E-04  5.325157E-07

 displacements (vx,vy,vz) for set TIPMARKER and time  0.1120000E+02

         4  2.918063E-04  7.641002E-04  7.616247E-07

 displacements (vx,vy,vz) for set TIPMARKER and time  0.1135000E+02

         4  2.932588E-04  1.754679E-03  9.430039E-07

 displacements (vx,vy,vz) for set TIPMARKER and time  0.1150000E+02

         4  2.993552E-04  2.396564E-03  1.041538E-06

 displacements (vx,vy,vz) for set TIPMARKER and time  0.1165000E+02

         4  3.071877E-04  2.650279E-03  1.040304E-06

 displacements (vx,vy,vz) for set TIPMARKER and time  0.1180000E+02

         4  3.104206E-04  2.624922E-03  9.574607E-07

 displacements (vx,vy,vz) for set TIPMARKER and time  0.1195000E+02

         4  3.115566E-04  2.411064E-03  8.470150E-07

 displacements (vx,vy,vz) for set TIPMARKER and time  0.1210000E+02

         4  3.162630E-04  1.993151E-03  7.511094E-07

 displacements (vx,vy,vz) for set TIPMARKER and time  0.1225000E+02

         4  3.194958E-04  1.308226E-03  6.567278E-07

 displacements (vx,vy,vz) for set TIPMARKER and time  0.1240000E+02

         4  3.171576E-04  3.922223E-04  5.498010E-07

 displacements (vx,vy,vz) for set TIPMARKER and time  0.1255000E+02

         4  3.212649E-04 -5.186698E-04  4.797653E-07

 displacements (vx,vy,vz) for set TIPMARKER and time  0.1270000E+02

         4  3.276576E-04 -1.049332E-03  4.728109E-07

 displacements (vx,vy,vz) for set TIPMARKER and time  0.1285000E+02

         4  3.304345E-04 -8.934031E-04  5.495530E-07

 displacements (vx,vy,vz) for set TIPMARKER and time  0.1300000E+02

         4  3.339449E-04 -2.293323E-05  7.228730E-07

 displacements (vx,vy,vz) for set TIPMARKER and time  0.1315000E+02

         4  3.415723E-04  1.249905E-03  9.499172E-07

 displacements (vx,vy,vz) for set TIPMARKER and time  0.1330000E+02

         4  3.474250E-04  2.418703E-03  1.128606E-06

 displacements (vx,vy,vz) for set TIPMARKER and time  0.1345000E+02

         4  3.481267E-04  3.051265E-03  1.175695E-06

 displacements (vx,vy,vz) for set TIPMARKER and time  0.1360000E+02

         4  3.541424E-04  3.000841E-03  1.099714E-06

 displacements (vx,vy,vz) for set TIPMARKER and time  0.1375000E+02

         4  3.602300E-04  2.429309E-03  9.297371E-07

 displacements (vx,vy,vz) for set TIPMARKER and time  0.1390000E+02

         4  3.606857E-04  1.649738E-03  7.308879E-07

 displacements (vx,vy,vz) for set TIPMARKER and time  0.1405000E+02

         4  3.621320E-04  9.169205E-04  5.929991E-07

 displacements (vx,vy,vz) for set TIPMARKER and time  0.1420000E+02

         4  3.667720E-04  3.186266E-04  5.500061E-07

 displacements (vx,vy,vz) for set TIPMARKER and time  0.1435000E+02

         4  3.694361E-04 -1.684418E-04  5.715438E-07

 displacements (vx,vy,vz) for set TIPMARKER and time  0.1450000E+02

         4  3.693350E-04 -5.347659E-04  6.232117E-07

 displacements (vx,vy,vz) for set TIPMARKER and time  0.1465000E+02

         4  3.756626E-04 -6.520705E-04  7.112599E-07

 displacements (vx,vy,vz) for set TIPMARKER and time  0.1480000E+02

         4  3.828954E-04 -3.332940E-04  8.217550E-07

 displacements (vx,vy,vz) for set TIPMARKER and time  0.1495000E+02

         4  3.851778E-04  4.969154E-04  9.437929E-07

 displacements (vx,vy,vz) for set TIPMARKER and time  0.1510000E+02

         4  3.902638E-04  1.658826E-03  1.081938E-06

 displacements (vx,vy,vz) for set TIPMARKER and time  0.1525000E+02

         4  3.976675E-04  2.735970E-03  1.187181E-06

 displacements (vx,vy,vz) for set TIPMARKER and time  0.1540000E+02

         4  4.014985E-04  3.272242E-03  1.188010E-06

 displacements (vx,vy,vz) for set TIPMARKER and time  0.1555000E+02

         4  4.024133E-04  3.026190E-03  1.062447E-06

 displacements (vx,vy,vz) for set TIPMARKER and time  0.1570000E+02

         4  4.077842E-04  2.112837E-03  8.636086E-07

 displacements (vx,vy,vz) for set TIPMARKER and time  0.1585000E+02

         4  4.121676E-04  9.333603E-04  6.572653E-07

 displacements (vx,vy,vz) for set TIPMARKER and time  0.1600000E+02

         4  4.106287E-04 -5.780455E-05  5.186504E-07

 displacements (vx,vy,vz) for set TIPMARKER and time  0.1615000E+02

         4  4.134286E-04 -5.862025E-04  5.242951E-07

 displacements (vx,vy,vz) for set TIPMARKER and time  0.1630000E+02

         4  4.189214E-04 -6.439321E-04  6.533685E-07

 displacements (vx,vy,vz) for set TIPMARKER and time  0.1645000E+02

         4  4.217301E-04 -3.930220E-04  8.272805E-07

 displacements (vx,vy,vz) for set TIPMARKER and time  0.1660000E+02

         4  4.245128E-04  1.365249E-05  9.835398E-07

 displacements (vx,vy,vz) for set TIPMARKER and time  0.1675000E+02

         4  4.325142E-04  5.383069E-04  1.097196E-06

 displacements (vx,vy,vz) for set TIPMARKER and time  0.1690000E+02

         4  4.394781E-04  1.214639E-03  1.150638E-06

 displacements (vx,vy,vz) for set TIPMARKER and time  0.1705000E+02

         4  4.400232E-04  2.007654E-03  1.148207E-06

 displacements (vx,vy,vz) for set TIPMARKER and time  0.1720000E+02

         4  4.452912E-04  2.712832E-03  1.130549E-06

 displacements (vx,vy,vz) for set TIPMARKER and time  0.1735000E+02

         4  4.512478E-04  3.007927E-03  1.075669E-06

 displacements (vx,vy,vz) for set TIPMARKER and time  0.1750000E+02

         4  4.524630E-04  2.644573E-03  9.548674E-07

 displacements (vx,vy,vz) for set TIPMARKER and time  0.1765000E+02

         4  4.537036E-04  1.644736E-03  7.927937E-07

 displacements (vx,vy,vz) for set TIPMARKER and time  0.1780000E+02

         4  4.589103E-04  3.503346E-04  6.493984E-07

 displacements (vx,vy,vz) for set TIPMARKER and time  0.1795000E+02

         4  4.624590E-04 -7.305178E-04  5.783061E-07

 displacements (vx,vy,vz) for set TIPMARKER and time  0.1810000E+02

         4  4.611383E-04 -1.190378E-03  6.200481E-07

 displacements (vx,vy,vz) for set TIPMARKER and time  0.1825000E+02

         4  4.660714E-04 -9.279575E-04  7.986167E-07

 displacements (vx,vy,vz) for set TIPMARKER and time  0.1840000E+02

         4  4.726209E-04 -1.617191E-04  1.034126E-06

 displacements (vx,vy,vz) for set TIPMARKER and time  0.1855000E+02

         4  4.753042E-04  7.426706E-04  1.219125E-06

 displacements (vx,vy,vz) for set TIPMARKER and time  0.1870000E+02

         4  4.801459E-04  1.495394E-03  1.302025E-06

 displacements (vx,vy,vz) for set TIPMARKER and time  0.1885000E+02

         4  4.884157E-04  2.000423E-03  1.274342E-06

 displacements (vx,vy,vz) for set TIPMARKER and time  0.1900000E+02

         4  4.936394E-04  2.303383E-03  1.159547E-06

 displacements (vx,vy,vz) for set TIPMARKER and time  0.1915000E+02

         4  4.939550E-04  2.441692E-03  1.013588E-06

 displacements (vx,vy,vz) for set TIPMARKER and time  0.1930000E+02

         4  4.986349E-04  2.345249E-03  9.045110E-07

 displacements (vx,vy,vz) for set TIPMARKER and time  0.1945000E+02

         4  5.029257E-04  1.880768E-03  8.279758E-07

 displacements (vx,vy,vz) for set TIPMARKER and time  0.1960000E+02

         4  5.020550E-04  1.007484E-03  7.620548E-07

 displacements (vx,vy,vz) for set TIPMARKER and time  0.1975000E+02

         4  5.045442E-04 -8.800860E-05  7.302569E-07

 displacements (vx,vy,vz) for set TIPMARKER and time  0.1990000E+02

         4  5.104975E-04 -1.010173E-03  7.532552E-07

 displacements (vx,vy,vz) for set TIPMARKER and time  0.2005000E+02

         4  5.140208E-04 -1.345617E-03  8.416774E-07

 displacements (vx,vy,vz) for set TIPMARKER and time  0.2020000E+02

         4  5.154723E-04 -9.061034E-04  9.992169E-07

 displacements (vx,vy,vz) for set TIPMARKER and time  0.2035000E+02

         4  5.223118E-04  1.430752E-04  1.203898E-06

 displacements (vx,vy,vz) for set TIPMARKER and time  0.2050000E+02

         4  5.290679E-04  1.364642E-03  1.363462E-06

 displacements (vx,vy,vz) for set TIPMARKER and time  0.2065000E+02

         4  5.304992E-04  2.290819E-03  1.392801E-06

 displacements (vx,vy,vz) for set TIPMARKER and time  0.2080000E+02

         4  5.360231E-04  2.661008E-03  1.296521E-06

 displacements (vx,vy,vz) for set TIPMARKER and time  0.2095000E+02

         4  5.431773E-04  2.505382E-03  1.110776E-06

 displacements (vx,vy,vz) for set TIPMARKER and time  0.2110000E+02

         4  5.457830E-04  2.039011E-03  9.039356E-07

 displacements (vx,vy,vz) for set TIPMARKER and time  0.2125000E+02

         4  5.462054E-04  1.469900E-03  7.630296E-07

 displacements (vx,vy,vz) for set TIPMARKER and time  0.2140000E+02

         4  5.505673E-04  8.768170E-04  7.396461E-07

 displacements (vx,vy,vz) for set TIPMARKER and time  0.2155000E+02

         4  5.539181E-04  2.414317E-04  8.014407E-07

 displacements (vx,vy,vz) for set TIPMARKER and time  0.2170000E+02

         4  5.520913E-04 -4.148713E-04  8.912821E-07

 displacements (vx,vy,vz) for set TIPMARKER and time  0.2185000E+02

         4  5.567365E-04 -9.270607E-04  1.003839E-06

 displacements (vx,vy,vz) for set TIPMARKER and time  0.2200000E+02

         4  5.638418E-04 -1.026122E-03  1.116103E-06

 displacements (vx,vy,vz) for set TIPMARKER and time  0.2215000E+02

         4  5.673045E-04 -5.156569E-04  1.215930E-06

 displacements (vx,vy,vz) for set TIPMARKER and time  0.2230000E+02

         4  5.710009E-04  5.437685E-04  1.309396E-06

 displacements (vx,vy,vz) for set TIPMARKER and time  0.2245000E+02

         4  5.785452E-04  1.794599E-03  1.376588E-06

 displacements (vx,vy,vz) for set TIPMARKER and time  0.2260000E+02

         4  5.840792E-04  2.739080E-03  1.358774E-06

 displacements (vx,vy,vz) for set TIPMARKER and time  0.2275000E+02

         4  5.840068E-04  3.002005E-03  1.224907E-06

 displacements (vx,vy,vz) for set TIPMARKER and time  0.2290000E+02

         4  5.892239E-04  2.529600E-03  1.032827E-06

 displacements (vx,vy,vz) for set TIPMARKER and time  0.2305000E+02

         4  5.947304E-04  1.591947E-03  8.427463E-07

 displacements (vx,vy,vz) for set TIPMARKER and time  0.2320000E+02

         4  5.949403E-04  5.968202E-04  7.252519E-07

 displacements (vx,vy,vz) for set TIPMARKER and time  0.2335000E+02

         4  5.962533E-04 -1.433319E-04  7.477426E-07

 displacements (vx,vy,vz) for set TIPMARKER and time  0.2350000E+02

         4  6.011936E-04 -5.364832E-04  9.016859E-07

 displacements (vx,vy,vz) for set TIPMARKER and time  0.2365000E+02

         4  6.045111E-04 -6.595802E-04  1.103203E-06

 displacements (vx,vy,vz) for set TIPMARKER and time  0.2380000E+02

         4  6.049414E-04 -5.996067E-04  1.267731E-06

 displacements (vx,vy,vz) for set TIPMARKER and time  0.2395000E+02

         4  6.117945E-04 -3.407698E-04  1.370825E-06

 displacements (vx,vy,vz) for set TIPMARKER and time  0.2410000E+02

         4  6.194335E-04  2.055979E-04  1.394083E-06

 displacements (vx,vy,vz) for set TIPMARKER and time  0.2425000E+02

         4  6.218654E-04  1.058101E-03  1.350291E-06

 displacements (vx,vy,vz) for set TIPMARKER and time  0.2440000E+02

         4  6.265361E-04  2.035613E-03  1.288720E-06

 displacements (vx,vy,vz) for set TIPMARKER and time  0.2455000E+02

         4  6.333576E-04  2.772471E-03  1.215916E-06

 displacements (vx,vy,vz) for set TIPMARKER and time  0.2470000E+02

         4  6.365826E-04  2.901362E-03  1.108843E-06

 displacements (vx,vy,vz) for set TIPMARKER and time  0.2485000E+02

         4  6.367252E-04  2.284445E-03  9.735786E-07

 displacements (vx,vy,vz) for set TIPMARKER and time  0.2500000E+02

         4  6.416183E-04  1.129255E-03  8.660642E-07

 displacements (vx,vy,vz) for set TIPMARKER and time  0.2515000E+02

         4  6.459603E-04 -1.023189E-04  8.269797E-07

 displacements (vx,vy,vz) for set TIPMARKER and time  0.2530000E+02

         4  6.447854E-04 -9.413736E-04  8.859993E-07

 displacements (vx,vy,vz) for set TIPMARKER and time  0.2545000E+02

         4  6.480028E-04 -1.150532E-03  1.065647E-06

 displacements (vx,vy,vz) for set TIPMARKER and time  0.2560000E+02

         4  6.541474E-04 -8.023835E-04  1.298942E-06

 displacements (vx,vy,vz) for set TIPMARKER and time  0.2575000E+02

         4  6.576625E-04 -1.636490E-04  1.478779E-06

 displacements (vx,vy,vz) for set TIPMARKER and time  0.2590000E+02

         4  6.607238E-04  5.102007E-04  1.539818E-06

 displacements (vx,vy,vz) for set TIPMARKER and time  0.2605000E+02

         4  6.687835E-04  1.110555E-03  1.483235E-06

 displacements (vx,vy,vz) for set TIPMARKER and time  0.2620000E+02

         4  6.755842E-04  1.651917E-03  1.337440E-06

 displacements (vx,vy,vz) for set TIPMARKER and time  0.2635000E+02

         4  6.757389E-04  2.136271E-03  1.161066E-06

 displacements (vx,vy,vz) for set TIPMARKER and time  0.2650000E+02

         4  6.802544E-04  2.442893E-03  1.041920E-06

 displacements (vx,vy,vz) for set TIPMARKER and time  0.2665000E+02

         4  6.855805E-04  2.355035E-03  9.867953E-07

 displacements (vx,vy,vz) for set TIPMARKER and time  0.2680000E+02

         4  6.864268E-04  1.722154E-03  9.669752E-07

 displacements (vx,vy,vz) for set TIPMARKER and time  0.2695000E+02

         4  6.873665E-04  6.332403E-04  9.783587E-07

 displacements (vx,vy,vz) for set TIPMARKER and time  0.2710000E+02

         4  6.927028E-04 -5.498118E-04  1.033906E-06

 displacements (vx,vy,vz) for set TIPMARKER and time  0.2725000E+02

         4  6.967803E-04 -1.349252E-03  1.132844E-06

 displacements (vx,vy,vz) for set TIPMARKER and time  0.2740000E+02

         4  6.959464E-04 -1.428242E-03  1.268797E-06

 displacements (vx,vy,vz) for set TIPMARKER and time  0.2755000E+02

         4  7.014230E-04 -7.806964E-04  1.441241E-06

 displacements (vx,vy,vz) for set TIPMARKER and time  0.2770000E+02

         4  7.084594E-04  2.772807E-04  1.572370E-06

 displacements (vx,vy,vz) for set TIPMARKER and time  0.2785000E+02

         4  7.114240E-04  1.304956E-03  1.583004E-06

 displacements (vx,vy,vz) for set TIPMARKER and time  0.2800000E+02

         4  7.159906E-04  1.978676E-03  1.467787E-06

 displacements (vx,vy,vz) for set TIPMARKER and time  0.2815000E+02

         4  7.237892E-04  2.220796E-03  1.272467E-06

 displacements (vx,vy,vz) for set TIPMARKER and time  0.2830000E+02

         4  7.284710E-04  2.145504E-03  1.065991E-06

 displacements (vx,vy,vz) for set TIPMARKER and time  0.2845000E+02

         4  7.280036E-04  1.890343E-03  9.286625E-07

 displacements (vx,vy,vz) for set TIPMARKER and time  0.2860000E+02

         4  7.321039E-04  1.489613E-03  9.273291E-07

 displacements (vx,vy,vz) for set TIPMARKER and time  0.2875000E+02

         4  7.361904E-04  8.901336E-04  1.028712E-06

 displacements (vx,vy,vz) for set TIPMARKER and time  0.2890000E+02

         4  7.355125E-04  8.443866E-05  1.162181E-06

 displacements (vx,vy,vz) for set TIPMARKER and time  0.2905000E+02

         4  7.382714E-04 -7.617081E-04  1.295726E-06

 displacements (vx,vy,vz) for set TIPMARKER and time  0.2920000E+02

         4  7.447978E-04 -1.319476E-03  1.405340E-06

 displacements (vx,vy,vz) for set TIPMARKER and time  0.2935000E+02

         4  7.490408E-04 -1.269556E-03  1.477861E-06

 displacements (vx,vy,vz) for set TIPMARKER and time  0.2950000E+02

         4  7.508658E-04 -5.206589E-04  1.520834E-06

 displacements (vx,vy,vz) for set TIPMARKER and time  0.2965000E+02

         4  7.578939E-04  6.857183E-04  1.544765E-06

 displacements (vx,vy,vz) for set TIPMARKER and time  0.2980000E+02

         4  7.646238E-04  1.873649E-03  1.506950E-06

 displacements (vx,vy,vz) for set TIPMARKER and time  0.2995000E+02

         4  7.657835E-04  2.583251E-03  1.375795E-06

 displacements (vx,vy,vz) for set TIPMARKER and time  0.3000000E+02

         4  7.660141E-04  2.658651E-03  1.312829E-06
