
 displacements (vx,vy,vz) for set TIPMARKER and time  0.1000000E+00

         4  2.313606E-06  3.872026E-05  1.324245E-08

 displacements (vx,vy,vz) for set TIPMARKER and time  0.2000000E+00

         4  6.940558E-06  1.739902E-04  3.629844E-08

 displacements (vx,vy,vz) for set TIPMARKER and time  0.3000000E+00

         4  1.240133E-05  4.388150E-04  7.395382E-08

 displacements (vx,vy,vz) for set TIPMARKER and time  0.4000000E+00

         4  1.706008E-05  8.573656E-04  1.363105E-07

 displacements (vx,vy,vz) for set TIPMARKER and time  0.5000000E+00

         4  1.965339E-05  1.450882E-03  2.214184E-07

 displacements (vx,vy,vz) for set TIPMARKER and time  0.6000000E+00

         4  2.082828E-05  2.186601E-03  3.262651E-07

 displacements (vx,vy,vz) for set TIPMARKER and time  0.7000000E+00

         4  2.420376E-05  2.945482E-03  4.553124E-07

 displacements (vx,vy,vz) for set TIPMARKER and time  0.8000000E+00

         4  2.874921E-05  3.587563E-03  5.868254E-07

 displacements (vx,vy,vz) for set TIPMARKER and time  0.9000000E+00

         4  3.313329E-05  3.988494E-03  6.884473E-07

 displacements (vx,vy,vz) for set TIPMARKER and time  0.1000000E+01

         4  3.587647E-05  4.023520E-03  7.329066E-07

 displacements (vx,vy,vz) for set TIPMARKER and time  0.1100000E+01

         4  3.582349E-05  3.622009E-03  7.057933E-07

 displacements (vx,vy,vz) for set TIPMARKER and time  0.1200000E+01

         4  3.531392E-05  2.825227E-03  6.077492E-07

 displacements (vx,vy,vz) for set TIPMARKER and time  0.1350000E+01

         4  3.921356E-05  1.229381E-03  3.737586E-07

 displacements (vx,vy,vz) for set TIPMARKER and time  0.1500000E+01

         4  4.373461E-05 -3.456967E-04  1.055362E-07

 displacements (vx,vy,vz) for set TIPMARKER and time  0.1650000E+01

         4  4.469960E-05 -1.303842E-03 -9.684805E-08

 displacements (vx,vy,vz) for set TIPMARKER and time  0.1800000E+01

         4  4.629321E-05 -1.288003E-03 -1.517137E-07

 displacements (vx,vy,vz) for set TIPMARKER and time  0.1950000E+01

         4  5.298328E-05 -4.008170E-04 -3.358257E-08

 displacements (vx,vy,vz) for set TIPMARKER and time  0.2100000E+01

         4  6.017150E-05  9.297411E-04  1.928655E-07

 displacements (vx,vy,vz) for set TIPMARKER and time  0.2250000E+01

         4  6.327500E-05  2.187422E-03  4.192428E-07

 displacements (vx,vy,vz) for set TIPMARKER and time  0.2400000E+01

         4  6.777849E-05  2.969609E-03  5.867396E-07

 displacements (vx,vy,vz) for set TIPMARKER and time  0.2550000E+01

         4  7.535538E-05  3.171723E-03  6.678847E-07

 displacements (vx,vy,vz) for set TIPMARKER and time  0.2700000E+01

         4  8.114148E-05  2.952183E-03  6.570948E-07

 displacements (vx,vy,vz) for set TIPMARKER and time  0.2850000E+01

         4  8.093582E-05  2.523696E-03  5.856270E-07

 displacements (vx,vy,vz) for set TIPMARKER and time  0.3000000E+01

         4  8.312430E-05  2.029619E-03  5.104707E-07

 displacements (vx,vy,vz) for set TIPMARKER and time  0.3150000E+01

         4  8.789391E-05  1.486368E-03  4.366627E-07

 displacements (vx,vy,vz) for set TIPMARKER and time  0.3300000E+01

         4  9.089052E-05  8.208699E-04  3.451604E-07

 displacements (vx,vy,vz) for set TIPMARKER and time  0.3450000E+01

         4  8.897527E-05  5.738282E-05  2.231014E-07

 displacements (vx,vy,vz) for set TIPMARKER and time  0.3600000E+01

         4  9.285443E-05 -6.021576E-04  1.168862E-07

 displacements (vx,vy,vz) for set TIPMARKER and time  0.3750000E+01

         4  9.994952E-05 -8.526438E-04  6.870331E-08

 displacements (vx,vy,vz) for set TIPMARKER and time  0.3900000E+01

         4  1.053402E-04 -4.239293E-04  1.156299E-07

 displacements (vx,vy,vz) for set TIPMARKER and time  0.4050000E+01

         4  1.067946E-04  7.094698E-04  2.684494E-07

 displacements (vx,vy,vz) for set TIPMARKER and time  0.4200000E+01

         4  1.134884E-04  2.219777E-03  5.208807E-07

 displacements (vx,vy,vz) for set TIPMARKER and time  0.4350000E+01

         4  1.212845E-04  3.551745E-03  7.763026E-07

 displacements (vx,vy,vz) for set TIPMARKER and time  0.4500000E+01

         4  1.251023E-04  4.160512E-03  9.211699E-07

 displacements (vx,vy,vz) for set TIPMARKER and time  0.4650000E+01

         4  1.252827E-04  3.765008E-03  8.953473E-07

 displacements (vx,vy,vz) for set TIPMARKER and time  0.4800000E+01

         4  1.295094E-04  2.518501E-03  7.241203E-07

 displacements (vx,vy,vz) for set TIPMARKER and time  0.4950000E+01

         4  1.341100E-04  9.259724E-04  4.671392E-07

 displacements (vx,vy,vz) for set TIPMARKER and time  0.5100000E+01

         4  1.348082E-04 -4.094337E-04  2.207318E-07

 displacements (vx,vy,vz) for set TIPMARKER and time  0.5250000E+01

         4  1.350224E-04 -1.045511E-03  8.283755E-08

 displacements (vx,vy,vz) for set TIPMARKER and time  0.5400000E+01

         4  1.403806E-04 -8.869038E-04  1.016581E-07

 displacements (vx,vy,vz) for set TIPMARKER and time  0.5550000E+01

         4  1.467139E-04 -1.700870E-04  2.379676E-07

 displacements (vx,vy,vz) for set TIPMARKER and time  0.5700000E+01

         4  1.494779E-04  7.343463E-04  4.115423E-07

 displacements (vx,vy,vz) for set TIPMARKER and time  0.5850000E+01

         4  1.536638E-04  1.524103E-03  5.698283E-07

 displacements (vx,vy,vz) for set TIPMARKER and time  0.6000000E+01

         4  1.617122E-04  2.081852E-03  6.872372E-07

 displacements (vx,vy,vz) for set TIPMARKER and time  0.6150000E+01

         4  1.686714E-04  2.460803E-03  7.512952E-07

 displacements (vx,vy,vz) for set TIPMARKER and time  0.6300000E+01

         4  1.699742E-04  2.734573E-03  7.692639E-07

 displacements (vx,vy,vz) for set TIPMARKER and time  0.6450000E+01

         4  1.729614E-04  2.867550E-03  7.738263E-07

 displacements (vx,vy,vz) for set TIPMARKER and time  0.6600000E+01

         4  1.782778E-04  2.710552E-03  7.545810E-07

 displacements (vx,vy,vz) for set TIPMARKER and time  0.6750000E+01

         4  1.815723E-04  2.102198E-03  6.754608E-07

 displacements (vx,vy,vz) for set TIPMARKER and time  0.6900000E+01

         4  1.794518E-04  1.039338E-03  5.194462E-07

 displacements (vx,vy,vz) for set TIPMARKER and time  0.7050000E+01

         4  1.820627E-04 -2.137296E-04  3.411816E-07

 displacements (vx,vy,vz) for set TIPMARKER and time  0.7200000E+01

         4  1.879428E-04 -1.194713E-03  2.002375E-07

 displacements (vx,vy,vz) for set TIPMARKER and time  0.7350000E+01

         4  1.925050E-04 -1.448820E-03  1.587004E-07

 displacements (vx,vy,vz) for set TIPMARKER and time  0.7500000E+01

         4  1.928792E-04 -7.683524E-04  2.513368E-07

 displacements (vx,vy,vz) for set TIPMARKER and time  0.7650000E+01

         4  1.992471E-04  6.556083E-04  4.882491E-07

 displacements (vx,vy,vz) for set TIPMARKER and time  0.7800000E+01

         4  2.075651E-04  2.293110E-03  7.788227E-07

 displacements (vx,vy,vz) for set TIPMARKER and time  0.7950000E+01

         4  2.126282E-04  3.517343E-03  1.000521E-06

 displacements (vx,vy,vz) for set TIPMARKER and time  0.8100000E+01

         4  2.136694E-04  3.886914E-03  1.066889E-06

 displacements (vx,vy,vz) for set TIPMARKER and time  0.8250000E+01

         4  2.188381E-04  3.340873E-03  9.793357E-07

 displacements (vx,vy,vz) for set TIPMARKER and time  0.8400000E+01

         4  2.242396E-04  2.194357E-03  7.747830E-07

 displacements (vx,vy,vz) for set TIPMARKER and time  0.8550000E+01

         4  2.254166E-04  9.407421E-04  5.337286E-07

 displacements (vx,vy,vz) for set TIPMARKER and time  0.8700000E+01

         4  2.248299E-04  2.964889E-06  3.527292E-07

 displacements (vx,vy,vz) for set TIPMARKER and time  0.8850000E+01

         4  2.290675E-04 -4.369862E-04  2.957876E-07

 displacements (vx,vy,vz) for set TIPMARKER and time  0.9000000E+01

         4  2.343049E-04 -4.516623E-04  3.435342E-07

 displacements (vx,vy,vz) for set TIPMARKER and time  0.9150000E+01

         4  2.362308E-04 -2.281522E-04  4.399570E-07

 displacements (vx,vy,vz) for set TIPMARKER and time  0.9300000E+01

         4  2.392930E-04  1.007089E-04  5.497939E-07

 displacements (vx,vy,vz) for set TIPMARKER and time  0.9450000E+01

         4  2.470185E-04  5.333284E-04  6.595828E-07

 displacements (vx,vy,vz) for set TIPMARKER and time  0.9600000E+01

         4  2.545442E-04  1.149514E-03  7.586816E-07

 displacements (vx,vy,vz) for set TIPMARKER and time  0.9750000E+01

         4  2.571028E-04  1.966794E-03  8.448315E-07

 displacements (vx,vy,vz) for set TIPMARKER and time  0.9900000E+01

         4  2.610102E-04  2.820204E-03  9.305540E-07

 displacements (vx,vy,vz) for set TIPMARKER and time  0.1005000E+02

         4  2.674332E-04  3.377825E-03  9.877466E-07

 displacements (vx,vy,vz) for set TIPMARKER and time  0.1020000E+02

         4  2.717577E-04  3.295012E-03  9.601626E-07

 displacements (vx,vy,vz) for set TIPMARKER and time  0.1035000E+02

         4  2.702532E-04  2.427782E-03  8.152027E-07

 displacements (vx,vy,vz) for set TIPMARKER and time  0.1050000E+02

         4  2.722331E-04  9.767320E-04  6.020403E-07

 displacements (vx,vy,vz) for set TIPMARKER and time  0.1065000E+02

         4  2.771832E-04 -5.512558E-04  3.903536E-07

 displacements (vx,vy,vz) for set TIPMARKER and time  0.1080000E+02

         4  2.807746E-04 -1.558921E-03  2.603599E-07

 displacements (vx,vy,vz) for set TIPMARKER and time  0.1095000E+02

         4  2.797152E-04 -1.638848E-03  2.702776E-07

 displacements (vx,vy,vz) for set TIPMARKER and time  0.1110000E+02

         4  2.849531E-04 -7.735694E-04  4.546910E-07

 displacements (vx,vy,vz) for set TIPMARKER and time  0.1125000E+02

         4  2.929524E-04  6.602059E-04  7.383172E-07

 displacements (vx,vy,vz) for set TIPMARKER and time  0.1140000E+02

         4  2.985761E-04  2.086809E-03  1.000785E-06

 displacements (vx,vy,vz) for set TIPMARKER and time  0.1155000E+02

         4  3.001247E-04  3.007195E-03  1.140865E-06

 displacements (vx,vy,vz) for set TIPMARKER and time  0.1170000E+02

         4  3.062928E-04  3.209001E-03  1.139793E-06

 displacements (vx,vy,vz) for set TIPMARKER and time  0.1185000E+02

         4  3.129806E-04  2.805997E-03  1.010442E-06

 displacements (vx,vy,vz) for set TIPMARKER and time  0.1200000E+02

         4  3.153803E-04  2.101181E-03  8.125606E-07

 displacements (vx,vy,vz) for set TIPMARKER and time  0.1215000E+02

         4  3.148507E-04  1.382544E-03  6.298821E-07

 displacements (vx,vy,vz) for set TIPMARKER and time  0.1230000E+02

         4  3.186734E-04  7.823629E-04  5.308781E-07

 displacements (vx,vy,vz) for set TIPMARKER and time  0.1245000E+02

         4  3.231923E-04  2.749764E-04  5.084593E-07

 displacements (vx,vy,vz) for set TIPMARKER and time  0.1260000E+02

         4  3.242390E-04 -2.019810E-04  5.251463E-07

 displacements (vx,vy,vz) for set TIPMARKER and time  0.1275000E+02

         4  3.257259E-04 -6.090905E-04  5.640992E-07

 displacements (vx,vy,vz) for set TIPMARKER and time  0.1290000E+02

         4  3.323437E-04 -7.643136E-04  6.311836E-07

 displacements (vx,vy,vz) for set TIPMARKER and time  0.1305000E+02

         4  3.395598E-04 -4.386080E-04  7.262685E-07

 displacements (vx,vy,vz) for set TIPMARKER and time  0.1320000E+02

         4  3.426192E-04  4.646672E-04  8.483526E-07

 displacements (vx,vy,vz) for set TIPMARKER and time  0.1335000E+02

         4  3.469961E-04  1.768745E-03  9.991248E-07

 displacements (vx,vy,vz) for set TIPMARKER and time  0.1350000E+02

         4  3.544999E-04  3.033041E-03  1.136311E-06

 displacements (vx,vy,vz) for set TIPMARKER and time  0.1365000E+02

         4  3.602670E-04  3.731495E-03  1.182759E-06

 displacements (vx,vy,vz) for set TIPMARKER and time  0.1380000E+02

         4  3.601155E-04  3.513306E-03  1.084783E-06

 displacements (vx,vy,vz) for set TIPMARKER and time  0.1395000E+02

         4  3.623377E-04  2.400920E-03  8.755673E-07

 displacements (vx,vy,vz) for set TIPMARKER and time  0.1410000E+02

         4  3.671259E-04  8.052961E-04  6.246703E-07

 displacements (vx,vy,vz) for set TIPMARKER and time  0.1425000E+02

         4  3.702185E-04 -6.592219E-04  4.223230E-07

 displacements (vx,vy,vz) for set TIPMARKER and time  0.1440000E+02

         4  3.683483E-04 -1.461476E-03  3.468860E-07

 displacements (vx,vy,vz) for set TIPMARKER and time  0.1455000E+02

         4  3.720656E-04 -1.387767E-03  4.559136E-07

 displacements (vx,vy,vz) for set TIPMARKER and time  0.1470000E+02

         4  3.789984E-04 -6.022340E-04  6.977881E-07

 displacements (vx,vy,vz) for set TIPMARKER and time  0.1485000E+02

         4  3.842917E-04  4.869647E-04  9.635310E-07

 displacements (vx,vy,vz) for set TIPMARKER and time  0.1500000E+02

         4  3.855296E-04  1.461764E-03  1.147744E-06

 displacements (vx,vy,vz) for set TIPMARKER and time  0.1515000E+02

         4  3.921522E-04  2.087431E-03  1.219619E-06

 displacements (vx,vy,vz) for set TIPMARKER and time  0.1530000E+02

         4  4.000006E-04  2.361919E-03  1.171108E-06

 displacements (vx,vy,vz) for set TIPMARKER and time  0.1545000E+02

         4  4.039582E-04  2.414424E-03  1.039797E-06

 displacements (vx,vy,vz) for set TIPMARKER and time  0.1560000E+02

         4  4.041845E-04  2.344776E-03  8.901846E-07

 displacements (vx,vy,vz) for set TIPMARKER and time  0.1575000E+02

         4  4.084719E-04  2.125651E-03  7.853935E-07

 displacements (vx,vy,vz) for set TIPMARKER and time  0.1590000E+02

         4  4.130967E-04  1.637645E-03  7.211913E-07

 displacements (vx,vy,vz) for set TIPMARKER and time  0.1605000E+02

         4  4.138343E-04  8.108788E-04  6.711817E-07

 displacements (vx,vy,vz) for set TIPMARKER and time  0.1620000E+02

         4  4.138992E-04 -2.337122E-04  6.333520E-07

 displacements (vx,vy,vz) for set TIPMARKER and time  0.1635000E+02

         4  4.190975E-04 -1.157452E-03  6.348728E-07

 displacements (vx,vy,vz) for set TIPMARKER and time  0.1650000E+02

         4  4.253070E-04 -1.535860E-03  6.924286E-07

 displacements (vx,vy,vz) for set TIPMARKER and time  0.1665000E+02

         4  4.279775E-04 -1.086754E-03  8.152089E-07

 displacements (vx,vy,vz) for set TIPMARKER and time  0.1680000E+02

         4  4.319493E-04  1.403575E-04  1.003841E-06

 displacements (vx,vy,vz) for set TIPMARKER and time  0.1695000E+02

         4  4.399022E-04  1.733437E-03  1.209241E-06

 displacements (vx,vy,vz) for set TIPMARKER and time  0.1710000E+02

         4  4.468869E-04  3.083533E-03  1.336443E-06

 displacements (vx,vy,vz) for set TIPMARKER and time  0.1725000E+02

         4  4.483381E-04  3.667223E-03  1.309079E-06

 displacements (vx,vy,vz) for set TIPMARKER and time  0.1740000E+02

         4  4.514424E-04  3.290372E-03  1.137808E-06

 displacements (vx,vy,vz) for set TIPMARKER and time  0.1755000E+02

         4  4.569363E-04  2.165525E-03  8.826534E-07

 displacements (vx,vy,vz) for set TIPMARKER and time  0.1770000E+02

         4  4.604016E-04  7.845637E-04  6.344909E-07

 displacements (vx,vy,vz) for set TIPMARKER and time  0.1785000E+02

         4  4.583812E-04 -3.374589E-04  4.845831E-07

 displacements (vx,vy,vz) for set TIPMARKER and time  0.1800000E+02

         4  4.608295E-04 -8.952993E-04  5.104669E-07

 displacements (vx,vy,vz) for set TIPMARKER and time  0.1815000E+02

         4  4.664781E-04 -8.822684E-04  6.866446E-07

 displacements (vx,vy,vz) for set TIPMARKER and time  0.1830000E+02

         4  4.708129E-04 -5.069175E-04  9.222353E-07

 displacements (vx,vy,vz) for set TIPMARKER and time  0.1845000E+02

         4  4.708667E-04 -9.381317E-06  1.116872E-06

 displacements (vx,vy,vz) for set TIPMARKER and time  0.1860000E+02

         4  4.770272E-04  4.904782E-04  1.236976E-06

 displacements (vx,vy,vz) for set TIPMARKER and time  0.1875000E+02

         4  4.853213E-04  1.016856E-03  1.260183E-06

 displacements (vx,vy,vz) for set TIPMARKER and time  0.1890000E+02

         4  4.905118E-04  1.635011E-03  1.204236E-06

 displacements (vx,vy,vz) for set TIPMARKER and time  0.1905000E+02

         4  4.916432E-04  2.306529E-03  1.111960E-06

 displacements (vx,vy,vz) for set TIPMARKER and time  0.1920000E+02

         4  4.969623E-04  2.821293E-03  1.034389E-06

 displacements (vx,vy,vz) for set TIPMARKER and time  0.1935000E+02

         4  5.025380E-04  2.875435E-03  9.612224E-07

 displacements (vx,vy,vz) for set TIPMARKER and time  0.1950000E+02

         4  5.038756E-04  2.257060E-03  8.684334E-07

 displacements (vx,vy,vz) for set TIPMARKER and time  0.1965000E+02

         4  5.032515E-04  1.024725E-03  7.624086E-07

 displacements (vx,vy,vz) for set TIPMARKER and time  0.1980000E+02

         4  5.073816E-04 -4.430237E-04  6.893304E-07

 displacements (vx,vy,vz) for set TIPMARKER and time  0.1995000E+02

         4  5.124702E-04 -1.584828E-03  6.852653E-07

 displacements (vx,vy,vz) for set TIPMARKER and time  0.2010000E+02

         4  5.142070E-04 -1.918150E-03  7.761421E-07

 displacements (vx,vy,vz) for set TIPMARKER and time  0.2025000E+02

         4  5.169247E-04 -1.281332E-03  9.703689E-07

 displacements (vx,vy,vz) for set TIPMARKER and time  0.2040000E+02

         4  5.243842E-04  7.474559E-05  1.220909E-06

 displacements (vx,vy,vz) for set TIPMARKER and time  0.2055000E+02

         4  5.318014E-04  1.604920E-03  1.421326E-06

 displacements (vx,vy,vz) for set TIPMARKER and time  0.2070000E+02

         4  5.344332E-04  2.735212E-03  1.474662E-06

 displacements (vx,vy,vz) for set TIPMARKER and time  0.2085000E+02

         4  5.384551E-04  3.121425E-03  1.366284E-06

 displacements (vx,vy,vz) for set TIPMARKER and time  0.2100000E+02

         4  5.451355E-04  2.770879E-03  1.139800E-06

 displacements (vx,vy,vz) for set TIPMARKER and time  0.2115000E+02

         4  5.497815E-04  1.974250E-03  8.776767E-07

 displacements (vx,vy,vz) for set TIPMARKER and time  0.2130000E+02

         4  5.485424E-04  1.101146E-03  6.754059E-07

 displacements (vx,vy,vz) for set TIPMARKER and time  0.2145000E+02

         4  5.505167E-04  4.015289E-04  6.244577E-07

 displacements (vx,vy,vz) for set TIPMARKER and time  0.2160000E+02

         4  5.553333E-04 -7.360473E-05  7.238542E-07

 displacements (vx,vy,vz) for set TIPMARKER and time  0.2175000E+02

         4  5.587090E-04 -4.062972E-04  9.040553E-07

 displacements (vx,vy,vz) for set TIPMARKER and time  0.2190000E+02

         4  5.573894E-04 -6.603444E-04  1.077472E-06

 displacements (vx,vy,vz) for set TIPMARKER and time  0.2205000E+02

         4  5.622798E-04 -7.703452E-04  1.215098E-06

 displacements (vx,vy,vz) for set TIPMARKER and time  0.2220000E+02

         4  5.700675E-04 -5.611934E-04  1.289366E-06

 displacements (vx,vy,vz) for set TIPMARKER and time  0.2235000E+02

         4  5.756474E-04  1.148850E-04  1.303700E-06

 displacements (vx,vy,vz) for set TIPMARKER and time  0.2250000E+02

         4  5.771635E-04  1.212197E-03  1.280515E-06

 displacements (vx,vy,vz) for set TIPMARKER and time  0.2265000E+02

         4  5.834364E-04  2.419711E-03  1.255478E-06

 displacements (vx,vy,vz) for set TIPMARKER and time  0.2280000E+02

         4  5.903491E-04  3.260099E-03  1.205363E-06

 displacements (vx,vy,vz) for set TIPMARKER and time  0.2295000E+02

         4  5.930465E-04  3.316956E-03  1.099883E-06

 displacements (vx,vy,vz) for set TIPMARKER and time  0.2310000E+02

         4  5.926627E-04  2.466345E-03  9.457163E-07

 displacements (vx,vy,vz) for set TIPMARKER and time  0.2325000E+02

         4  5.965708E-04  9.794634E-04  8.025873E-07

 displacements (vx,vy,vz) for set TIPMARKER and time  0.2340000E+02

         4  6.010864E-04 -5.812014E-04  7.247115E-07

 displacements (vx,vy,vz) for set TIPMARKER and time  0.2355000E+02

         4  6.020072E-04 -1.621794E-03  7.581340E-07

 displacements (vx,vy,vz) for set TIPMARKER and time  0.2370000E+02

         4  6.031130E-04 -1.789307E-03  9.259650E-07

 displacements (vx,vy,vz) for set TIPMARKER and time  0.2385000E+02

         4  6.093297E-04 -1.118419E-03  1.191929E-06

 displacements (vx,vy,vz) for set TIPMARKER and time  0.2400000E+02

         4  6.162367E-04  2.556127E-05  1.446375E-06

 displacements (vx,vy,vz) for set TIPMARKER and time  0.2415000E+02

         4  6.191631E-04  1.164255E-03  1.577007E-06

 displacements (vx,vy,vz) for set TIPMARKER and time  0.2430000E+02

         4  6.234831E-04  1.942208E-03  1.544765E-06

 displacements (vx,vy,vz) for set TIPMARKER and time  0.2445000E+02

         4  6.311556E-04  2.257566E-03  1.373238E-06

 displacements (vx,vy,vz) for set TIPMARKER and time  0.2460000E+02

         4  6.372664E-04  2.227420E-03  1.129193E-06

 displacements (vx,vy,vz) for set TIPMARKER and time  0.2475000E+02

         4  6.375045E-04  2.028579E-03  9.035380E-07

 displacements (vx,vy,vz) for set TIPMARKER and time  0.2490000E+02

         4  6.399132E-04  1.746246E-03  7.937864E-07

 displacements (vx,vy,vz) for set TIPMARKER and time  0.2505000E+02

         4  6.447853E-04  1.331670E-03  8.185883E-07

 displacements (vx,vy,vz) for set TIPMARKER and time  0.2520000E+02

         4  6.478427E-04  6.880819E-04  9.292895E-07

 displacements (vx,vy,vz) for set TIPMARKER and time  0.2535000E+02

         4  6.458151E-04 -1.740876E-04  1.056302E-06

 displacements (vx,vy,vz) for set TIPMARKER and time  0.2550000E+02

         4  6.491802E-04 -1.041461E-03  1.179935E-06

 displacements (vx,vy,vz) for set TIPMARKER and time  0.2565000E+02

         4  6.557854E-04 -1.550334E-03  1.277221E-06

 displacements (vx,vy,vz) for set TIPMARKER and time  0.2580000E+02

         4  6.608389E-04 -1.367413E-03  1.344887E-06

 displacements (vx,vy,vz) for set TIPMARKER and time  0.2595000E+02

         4  6.618190E-04 -4.038914E-04  1.389417E-06

 displacements (vx,vy,vz) for set TIPMARKER and time  0.2610000E+02

         4  6.683400E-04  1.072792E-03  1.431399E-06

 displacements (vx,vy,vz) for set TIPMARKER and time  0.2625000E+02

         4  6.762833E-04  2.521491E-03  1.430809E-06

 displacements (vx,vy,vz) for set TIPMARKER and time  0.2640000E+02

         4  6.805208E-04  3.367567E-03  1.343917E-06

 displacements (vx,vy,vz) for set TIPMARKER and time  0.2655000E+02

         4  6.809906E-04  3.275539E-03  1.169233E-06

 displacements (vx,vy,vz) for set TIPMARKER and time  0.2670000E+02

         4  6.855526E-04  2.311926E-03  9.724948E-07

 displacements (vx,vy,vz) for set TIPMARKER and time  0.2685000E+02

         4  6.904089E-04  9.000742E-04  8.215256E-07

 displacements (vx,vy,vz) for set TIPMARKER and time  0.2700000E+02

         4  6.912386E-04 -4.017759E-04  7.822561E-07

 displacements (vx,vy,vz) for set TIPMARKER and time  0.2715000E+02

         4  6.910688E-04 -1.164713E-03  8.966420E-07

 displacements (vx,vy,vz) for set TIPMARKER and time  0.2730000E+02

         4  6.958976E-04 -1.260720E-03  1.146535E-06

 displacements (vx,vy,vz) for set TIPMARKER and time  0.2745000E+02

         4  7.017049E-04 -8.538820E-04  1.427752E-06

 displacements (vx,vy,vz) for set TIPMARKER and time  0.2760000E+02

         4  7.040524E-04 -2.362588E-04  1.620233E-06

 displacements (vx,vy,vz) for set TIPMARKER and time  0.2775000E+02

         4  7.077240E-04  3.625246E-04  1.664678E-06

 displacements (vx,vy,vz) for set TIPMARKER and time  0.2790000E+02

         4  7.156086E-04  8.782614E-04  1.564426E-06

 displacements (vx,vy,vz) for set TIPMARKER and time  0.2805000E+02

         4  7.227723E-04  1.373827E-03  1.366057E-06

 displacements (vx,vy,vz) for set TIPMARKER and time  0.2820000E+02

         4  7.245613E-04  1.895467E-03  1.148281E-06

 displacements (vx,vy,vz) for set TIPMARKER and time  0.2835000E+02

         4  7.279231E-04  2.351503E-03  1.006042E-06

 displacements (vx,vy,vz) for set TIPMARKER and time  0.2850000E+02

         4  7.336791E-04  2.510618E-03  9.705112E-07

 displacements (vx,vy,vz) for set TIPMARKER and time  0.2865000E+02

         4  7.373488E-04  2.129817E-03  1.010126E-06

 displacements (vx,vy,vz) for set TIPMARKER and time  0.2880000E+02

         4  7.354117E-04  1.145935E-03  1.073842E-06

 displacements (vx,vy,vz) for set TIPMARKER and time  0.2895000E+02

         4  7.376869E-04 -2.052764E-04  1.155915E-06

 displacements (vx,vy,vz) for set TIPMARKER and time  0.2910000E+02

         4  7.430769E-04 -1.441869E-03  1.245468E-06

 displacements (vx,vy,vz) for set TIPMARKER and time  0.2925000E+02

         4  7.471138E-04 -2.043108E-03  1.340866E-06

 displacements (vx,vy,vz) for set TIPMARKER and time  0.2940000E+02

         4  7.467397E-04 -1.711096E-03  1.439597E-06

 displacements (vx,vy,vz) for set TIPMARKER and time  0.2955000E+02

         4  7.525525E-04 -5.410008E-04  1.550748E-06

 displacements (vx,vy,vz) for set TIPMARKER and time  0.2970000E+02

         4  7.606837E-04  1.010698E-03  1.616962E-06

 displacements (vx,vy,vz) for set TIPMARKER and time  0.2985000E+02

         4  7.659529E-04  2.341667E-03  1.576444E-06

 displacements (vx,vy,vz) for set TIPMARKER and time  0.3000000E+02

         4  7.672338E-04  2.983971E-03  1.411989E-06
