
 displacements (vx,vy,vz) for set TIPMARKER and time  0.1000000E+00

         4  4.103297E-06  6.222814E-05  2.176570E-08

 displacements (vx,vy,vz) for set TIPMARKER and time  0.2000000E+00

         4  9.062132E-06  2.420236E-04  4.566960E-08

 displacements (vx,vy,vz) for set TIPMARKER and time  0.3000000E+00

         4  9.946229E-06  4.946415E-04  6.842432E-08

 displacements (vx,vy,vz) for set TIPMARKER and time  0.4000000E+00

         4  1.282119E-05  7.563401E-04  1.231452E-07

 displacements (vx,vy,vz) for set TIPMARKER and time  0.5000000E+00

         4  1.686339E-05  1.022186E-03  1.911199E-07

 displacements (vx,vy,vz) for set TIPMARKER and time  0.6000000E+00

         4  1.834500E-05  1.278255E-03  2.396683E-07

 displacements (vx,vy,vz) for set TIPMARKER and time  0.7000000E+00

         4  2.127581E-05  1.446837E-03  2.785733E-07

 displacements (vx,vy,vz) for set TIPMARKER and time  0.8000000E+00

         4  2.634256E-05  1.505534E-03  3.078965E-07

 displacements (vx,vy,vz) for set TIPMARKER and time  0.9000000E+00

         4  2.874357E-05  1.500927E-03  3.098812E-07

 displacements (vx,vy,vz) for set TIPMARKER and time  0.1000000E+01

         4  2.983753E-05  1.423218E-03  2.970514E-07

 displacements (vx,vy,vz) for set TIPMARKER and time  0.1100000E+01

         4  3.319366E-05  1.244649E-03  2.922984E-07

 displacements (vx,vy,vz) for set TIPMARKER and time  0.1200000E+01

         4  3.511456E-05  1.004416E-03  2.755040E-07

 displacements (vx,vy,vz) for set TIPMARKER and time  0.1300000E+01

         4  3.546046E-05  7.493965E-04  2.332580E-07

 displacements (vx,vy,vz) for set TIPMARKER and time  0.1400000E+01

         4  3.976263E-05  4.823963E-04  1.914673E-07

 displacements (vx,vy,vz) for set TIPMARKER and time  0.1500000E+01

         4  4.322328E-05  2.316560E-04  1.509961E-07

 displacements (vx,vy,vz) for set TIPMARKER and time  0.1600000E+01

         4  4.252908E-05  6.923424E-05  1.096278E-07

 displacements (vx,vy,vz) for set TIPMARKER and time  0.1700000E+01

         4  4.561858E-05  9.897504E-06  9.798483E-08

 displacements (vx,vy,vz) for set TIPMARKER and time  0.1800000E+01

         4  4.893196E-05  2.337265E-05  1.121484E-07

 displacements (vx,vy,vz) for set TIPMARKER and time  0.1900000E+01

         4  4.901702E-05  1.175492E-04  1.308237E-07

 displacements (vx,vy,vz) for set TIPMARKER and time  0.2000000E+01

         4  5.299329E-05  3.009567E-04  1.594377E-07

 displacements (vx,vy,vz) for set TIPMARKER and time  0.2100000E+01

         4  5.825868E-05  5.354545E-04  1.957560E-07

 displacements (vx,vy,vz) for set TIPMARKER and time  0.2200000E+01

         4  5.978346E-05  7.867474E-04  2.346805E-07

 displacements (vx,vy,vz) for set TIPMARKER and time  0.2300000E+01

         4  6.225543E-05  1.052539E-03  2.855537E-07

 displacements (vx,vy,vz) for set TIPMARKER and time  0.2400000E+01

         4  6.644257E-05  1.297426E-03  3.427233E-07

 displacements (vx,vy,vz) for set TIPMARKER and time  0.2500000E+01

         4  6.820433E-05  1.458039E-03  3.873192E-07

 displacements (vx,vy,vz) for set TIPMARKER and time  0.2600000E+01

         4  7.023559E-05  1.520249E-03  4.133751E-07

 displacements (vx,vy,vz) for set TIPMARKER and time  0.2700000E+01

         4  7.524468E-05  1.499570E-03  4.193230E-07

 displacements (vx,vy,vz) for set TIPMARKER and time  0.2800000E+01

         4  7.810186E-05  1.391083E-03  4.012471E-07

 displacements (vx,vy,vz) for set TIPMARKER and time  0.2900000E+01

         4  7.833856E-05  1.199625E-03  3.730642E-07

 displacements (vx,vy,vz) for set TIPMARKER and time  0.3000000E+01

         4  8.149113E-05  9.649871E-04  3.513824E-07

 displacements (vx,vy,vz) for set TIPMARKER and time  0.3100000E+01

         4  8.387932E-05  7.134780E-04  3.220976E-07

 displacements (vx,vy,vz) for set TIPMARKER and time  0.3200000E+01

         4  8.337471E-05  4.492349E-04  2.798866E-07

 displacements (vx,vy,vz) for set TIPMARKER and time  0.3300000E+01

         4  8.734278E-05  2.086234E-04  2.463546E-07

 displacements (vx,vy,vz) for set TIPMARKER and time  0.3400000E+01

         4  9.144557E-05  4.495938E-05  2.140686E-07

 displacements (vx,vy,vz) for set TIPMARKER and time  0.3500000E+01

         4  9.119229E-05 -2.524175E-05  1.860767E-07

 displacements (vx,vy,vz) for set TIPMARKER and time  0.3600000E+01

         4  9.398118E-05 -5.578848E-06  1.951679E-07

 displacements (vx,vy,vz) for set TIPMARKER and time  0.3700000E+01

         4  9.769179E-05  1.088123E-04  2.288122E-07

 displacements (vx,vy,vz) for set TIPMARKER and time  0.3800000E+01

         4  9.859516E-05  3.033633E-04  2.632574E-07

 displacements (vx,vy,vz) for set TIPMARKER and time  0.3900000E+01

         4  1.020561E-04  5.367775E-04  3.067082E-07

 displacements (vx,vy,vz) for set TIPMARKER and time  0.4000000E+01

         4  1.074398E-04  7.854690E-04  3.544640E-07

 displacements (vx,vy,vz) for set TIPMARKER and time  0.4100000E+01

         4  1.097475E-04  1.041424E-03  3.922495E-07

 displacements (vx,vy,vz) for set TIPMARKER and time  0.4200000E+01

         4  1.116829E-04  1.270982E-03  4.317953E-07

 displacements (vx,vy,vz) for set TIPMARKER and time  0.4300000E+01

         4  1.156620E-04  1.430788E-03  4.787507E-07

 displacements (vx,vy,vz) for set TIPMARKER and time  0.4400000E+01

         4  1.177810E-04  1.503044E-03  5.084122E-07

 displacements (vx,vy,vz) for set TIPMARKER and time  0.4500000E+01

         4  1.190106E-04  1.481492E-03  5.103571E-07

 displacements (vx,vy,vz) for set TIPMARKER and time  0.4600000E+01

         4  1.236904E-04  1.359791E-03  4.973461E-07

 displacements (vx,vy,vz) for set TIPMARKER and time  0.4700000E+01

         4  1.269064E-04  1.157675E-03  4.650794E-07

 displacements (vx,vy,vz) for set TIPMARKER and time  0.4800000E+01

         4  1.265092E-04  9.167614E-04  4.181191E-07

 displacements (vx,vy,vz) for set TIPMARKER and time  0.4900000E+01

         4  1.294360E-04  6.621410E-04  3.850799E-07

 displacements (vx,vy,vz) for set TIPMARKER and time  0.5000000E+01

         4  1.321138E-04  4.075629E-04  3.585901E-07

 displacements (vx,vy,vz) for set TIPMARKER and time  0.5100000E+01

         4  1.312610E-04  1.832708E-04  3.237835E-07

 displacements (vx,vy,vz) for set TIPMARKER and time  0.5200000E+01

         4  1.349956E-04  2.297899E-05  3.004217E-07

 displacements (vx,vy,vz) for set TIPMARKER and time  0.5300000E+01

         4  1.395488E-04 -5.604708E-05  2.866621E-07

 displacements (vx,vy,vz) for set TIPMARKER and time  0.5400000E+01

         4  1.401631E-04 -4.082117E-05  2.816416E-07

 displacements (vx,vy,vz) for set TIPMARKER and time  0.5500000E+01

         4  1.427263E-04  7.719118E-05  3.063995E-07

 displacements (vx,vy,vz) for set TIPMARKER and time  0.5600000E+01

         4  1.467456E-04  2.777379E-04  3.551124E-07

 displacements (vx,vy,vz) for set TIPMARKER and time  0.5700000E+01

         4  1.482571E-04  5.205088E-04  4.059116E-07

 displacements (vx,vy,vz) for set TIPMARKER and time  0.5800000E+01

         4  1.511121E-04  7.765749E-04  4.558699E-07

 displacements (vx,vy,vz) for set TIPMARKER and time  0.5900000E+01

         4  1.565774E-04  1.025516E-03  5.011185E-07

 displacements (vx,vy,vz) for set TIPMARKER and time  0.6000000E+01

         4  1.594829E-04  1.239082E-03  5.314777E-07

 displacements (vx,vy,vz) for set TIPMARKER and time  0.6100000E+01

         4  1.607148E-04  1.391526E-03  5.553912E-07

 displacements (vx,vy,vz) for set TIPMARKER and time  0.6200000E+01

         4  1.644855E-04  1.467924E-03  5.816525E-07

 displacements (vx,vy,vz) for set TIPMARKER and time  0.6300000E+01

         4  1.669381E-04  1.452408E-03  5.904762E-07

 displacements (vx,vy,vz) for set TIPMARKER and time  0.6400000E+01

         4  1.672279E-04  1.334652E-03  5.724484E-07

 displacements (vx,vy,vz) for set TIPMARKER and time  0.6500000E+01

         4  1.715151E-04  1.132036E-03  5.434697E-07

 displacements (vx,vy,vz) for set TIPMARKER and time  0.6600000E+01

         4  1.751596E-04  8.816483E-04  4.985417E-07

 displacements (vx,vy,vz) for set TIPMARKER and time  0.6700000E+01

         4  1.741229E-04  6.159674E-04  4.423913E-07

 displacements (vx,vy,vz) for set TIPMARKER and time  0.6800000E+01

         4  1.767261E-04  3.626535E-04  4.103202E-07

 displacements (vx,vy,vz) for set TIPMARKER and time  0.6900000E+01

         4  1.797554E-04  1.505172E-04  3.928800E-07

 displacements (vx,vy,vz) for set TIPMARKER and time  0.7000000E+01

         4  1.796378E-04 -2.171047E-07  3.741435E-07

 displacements (vx,vy,vz) for set TIPMARKER and time  0.7100000E+01

         4  1.829950E-04 -7.812696E-05  3.702295E-07

 displacements (vx,vy,vz) for set TIPMARKER and time  0.7200000E+01

         4  1.878970E-04 -6.796467E-05  3.788795E-07

 displacements (vx,vy,vz) for set TIPMARKER and time  0.7300000E+01

         4  1.894355E-04  4.104862E-05  3.933916E-07

 displacements (vx,vy,vz) for set TIPMARKER and time  0.7400000E+01

         4  1.916575E-04  2.358047E-04  4.309662E-07

 displacements (vx,vy,vz) for set TIPMARKER and time  0.7500000E+01

         4  1.957971E-04  4.843363E-04  4.911029E-07

 displacements (vx,vy,vz) for set TIPMARKER and time  0.7600000E+01

         4  1.978765E-04  7.523580E-04  5.480378E-07

 displacements (vx,vy,vz) for set TIPMARKER and time  0.7700000E+01

         4  2.000651E-04  1.005559E-03  5.929437E-07

 displacements (vx,vy,vz) for set TIPMARKER and time  0.7850000E+01

         4  2.076021E-04  1.301591E-03  6.418274E-07

 displacements (vx,vy,vz) for set TIPMARKER and time  0.8000000E+01

         4  2.084400E-04  1.386975E-03  6.387696E-07

 displacements (vx,vy,vz) for set TIPMARKER and time  0.8150000E+01

         4  2.135842E-04  1.200748E-03  6.307576E-07

 displacements (vx,vy,vz) for set TIPMARKER and time  0.8300000E+01

         4  2.125746E-04  8.560450E-04  5.680421E-07

 displacements (vx,vy,vz) for set TIPMARKER and time  0.8450000E+01

         4  2.195296E-04  4.569376E-04  4.910448E-07

 displacements (vx,vy,vz) for set TIPMARKER and time  0.8600000E+01

         4  2.189209E-04  3.526254E-05  4.110335E-07

 displacements (vx,vy,vz) for set TIPMARKER and time  0.8750000E+01

         4  2.237405E-04 -2.938227E-04  3.893404E-07

 displacements (vx,vy,vz) for set TIPMARKER and time  0.8900000E+01

         4  2.246995E-04 -3.952799E-04  3.887563E-07

 displacements (vx,vy,vz) for set TIPMARKER and time  0.9050000E+01

         4  2.317478E-04 -2.541776E-04  4.313195E-07

 displacements (vx,vy,vz) for set TIPMARKER and time  0.9200000E+01

         4  2.354491E-04  7.640987E-05  4.900668E-07

 displacements (vx,vy,vz) for set TIPMARKER and time  0.9350000E+01

         4  2.405489E-04  4.902475E-04  5.805692E-07

 displacements (vx,vy,vz) for set TIPMARKER and time  0.9500000E+01

         4  2.444119E-04  8.858269E-04  6.688093E-07

 displacements (vx,vy,vz) for set TIPMARKER and time  0.9650000E+01

         4  2.499863E-04  1.210023E-03  7.175190E-07

 displacements (vx,vy,vz) for set TIPMARKER and time  0.9800000E+01

         4  2.559031E-04  1.354173E-03  7.174523E-07

 displacements (vx,vy,vz) for set TIPMARKER and time  0.9950000E+01

         4  2.583265E-04  1.227463E-03  6.884900E-07

 displacements (vx,vy,vz) for set TIPMARKER and time  0.1010000E+02

         4  2.625953E-04  8.966932E-04  6.445173E-07

 displacements (vx,vy,vz) for set TIPMARKER and time  0.1025000E+02

         4  2.643651E-04  4.861233E-04  5.674166E-07

 displacements (vx,vy,vz) for set TIPMARKER and time  0.1040000E+02

         4  2.708793E-04  7.642815E-05  5.011418E-07

 displacements (vx,vy,vz) for set TIPMARKER and time  0.1055000E+02

         4  2.707775E-04 -2.528620E-04  4.522320E-07

 displacements (vx,vy,vz) for set TIPMARKER and time  0.1070000E+02

         4  2.760934E-04 -4.153100E-04  4.712141E-07

 displacements (vx,vy,vz) for set TIPMARKER and time  0.1085000E+02

         4  2.755394E-04 -3.398419E-04  5.078283E-07

 displacements (vx,vy,vz) for set TIPMARKER and time  0.1100000E+02

         4  2.836683E-04 -2.824878E-05  5.782756E-07

 displacements (vx,vy,vz) for set TIPMARKER and time  0.1115000E+02

         4  2.845775E-04  3.930101E-04  6.433318E-07

 displacements (vx,vy,vz) for set TIPMARKER and time  0.1130000E+02

         4  2.906130E-04  7.938203E-04  7.335983E-07

 displacements (vx,vy,vz) for set TIPMARKER and time  0.1145000E+02

         4  2.922985E-04  1.120007E-03  7.816119E-07

 displacements (vx,vy,vz) for set TIPMARKER and time  0.1160000E+02

         4  2.994238E-04  1.301373E-03  7.881430E-07

 displacements (vx,vy,vz) for set TIPMARKER and time  0.1175000E+02

         4  3.025875E-04  1.249565E-03  7.442530E-07

 displacements (vx,vy,vz) for set TIPMARKER and time  0.1190000E+02

         4  3.064669E-04  9.618910E-04  6.904721E-07

 displacements (vx,vy,vz) for set TIPMARKER and time  0.1205000E+02

         4  3.090758E-04  5.381841E-04  6.284709E-07

 displacements (vx,vy,vz) for set TIPMARKER and time  0.1220000E+02

         4  3.133229E-04  1.145926E-04  5.660672E-07

 displacements (vx,vy,vz) for set TIPMARKER and time  0.1235000E+02

         4  3.185098E-04 -2.147855E-04  5.236131E-07

 displacements (vx,vy,vz) for set TIPMARKER and time  0.1250000E+02

         4  3.207736E-04 -4.063083E-04  5.267063E-07

 displacements (vx,vy,vz) for set TIPMARKER and time  0.1265000E+02

         4  3.256166E-04 -3.962359E-04  5.877468E-07

 displacements (vx,vy,vz) for set TIPMARKER and time  0.1280000E+02

         4  3.283330E-04 -1.412834E-04  6.566730E-07

 displacements (vx,vy,vz) for set TIPMARKER and time  0.1295000E+02

         4  3.362491E-04  2.767714E-04  7.354203E-07

 displacements (vx,vy,vz) for set TIPMARKER and time  0.1310000E+02

         4  3.372766E-04  7.064041E-04  7.951393E-07

 displacements (vx,vy,vz) for set TIPMARKER and time  0.1325000E+02

         4  3.433888E-04  1.044209E-03  8.552727E-07

 displacements (vx,vy,vz) for set TIPMARKER and time  0.1340000E+02

         4  3.429052E-04  1.239466E-03  8.520655E-07

 displacements (vx,vy,vz) for set TIPMARKER and time  0.1355000E+02

         4  3.504859E-04  1.245656E-03  8.165896E-07

 displacements (vx,vy,vz) for set TIPMARKER and time  0.1370000E+02

         4  3.505047E-04  1.024931E-03  7.360560E-07

 displacements (vx,vy,vz) for set TIPMARKER and time  0.1385000E+02

         4  3.551779E-04  6.170168E-04  6.784624E-07

 displacements (vx,vy,vz) for set TIPMARKER and time  0.1400000E+02

         4  3.556996E-04  1.658012E-04  6.210049E-07

 displacements (vx,vy,vz) for set TIPMARKER and time  0.1415000E+02

         4  3.618542E-04 -1.888177E-04  5.894909E-07

 displacements (vx,vy,vz) for set TIPMARKER and time  0.1430000E+02

         4  3.649239E-04 -3.940072E-04  5.852010E-07

 displacements (vx,vy,vz) for set TIPMARKER and time  0.1445000E+02

         4  3.691279E-04 -4.228390E-04  6.398070E-07

 displacements (vx,vy,vz) for set TIPMARKER and time  0.1460000E+02

         4  3.728301E-04 -2.364595E-04  7.244615E-07

 displacements (vx,vy,vz) for set TIPMARKER and time  0.1475000E+02

         4  3.782782E-04  1.449522E-04  8.058860E-07

 displacements (vx,vy,vz) for set TIPMARKER and time  0.1490000E+02

         4  3.848418E-04  5.996195E-04  8.681039E-07

 displacements (vx,vy,vz) for set TIPMARKER and time  0.1505000E+02

         4  3.879182E-04  9.749006E-04  9.053330E-07

 displacements (vx,vy,vz) for set TIPMARKER and time  0.1520000E+02

         4  3.931582E-04  1.187316E-03  9.220206E-07

 displacements (vx,vy,vz) for set TIPMARKER and time  0.1535000E+02

         4  3.953439E-04  1.222451E-03  8.808549E-07

 displacements (vx,vy,vz) for set TIPMARKER and time  0.1550000E+02

         4  4.023574E-04  1.062756E-03  8.124875E-07

 displacements (vx,vy,vz) for set TIPMARKER and time  0.1565000E+02

         4  4.019697E-04  7.055581E-04  7.271589E-07

 displacements (vx,vy,vz) for set TIPMARKER and time  0.1580000E+02

         4  4.067742E-04  2.459017E-04  6.861516E-07

 displacements (vx,vy,vz) for set TIPMARKER and time  0.1595000E+02

         4  4.051430E-04 -1.553082E-04  6.507084E-07

 displacements (vx,vy,vz) for set TIPMARKER and time  0.1610000E+02

         4  4.123147E-04 -3.907195E-04  6.614622E-07

 displacements (vx,vy,vz) for set TIPMARKER and time  0.1625000E+02

         4  4.127587E-04 -4.395845E-04  6.937577E-07

 displacements (vx,vy,vz) for set TIPMARKER and time  0.1640000E+02

         4  4.182883E-04 -3.028512E-04  7.829122E-07

 displacements (vx,vy,vz) for set TIPMARKER and time  0.1655000E+02

         4  4.201926E-04  2.024933E-05  8.679121E-07

 displacements (vx,vy,vz) for set TIPMARKER and time  0.1670000E+02

         4  4.275786E-04  4.671476E-04  9.353964E-07

 displacements (vx,vy,vz) for set TIPMARKER and time  0.1685000E+02

         4  4.318090E-04  8.880101E-04  9.593161E-07

 displacements (vx,vy,vz) for set TIPMARKER and time  0.1700000E+02

         4  4.364050E-04  1.145628E-03  9.633414E-07

 displacements (vx,vy,vz) for set TIPMARKER and time  0.1715000E+02

         4  4.399746E-04  1.202815E-03  9.342196E-07

 displacements (vx,vy,vz) for set TIPMARKER and time  0.1730000E+02

         4  4.444679E-04  1.077157E-03  8.674200E-07

 displacements (vx,vy,vz) for set TIPMARKER and time  0.1745000E+02

         4  4.498858E-04  7.772226E-04  7.885540E-07

 displacements (vx,vy,vz) for set TIPMARKER and time  0.1760000E+02

         4  4.515196E-04  3.439519E-04  7.293922E-07

 displacements (vx,vy,vz) for set TIPMARKER and time  0.1775000E+02

         4  4.557401E-04 -9.492454E-05  7.210208E-07

 displacements (vx,vy,vz) for set TIPMARKER and time  0.1790000E+02

         4  4.572326E-04 -3.873553E-04  7.324349E-07

 displacements (vx,vy,vz) for set TIPMARKER and time  0.1805000E+02

         4  4.644105E-04 -4.664718E-04  7.806597E-07

 displacements (vx,vy,vz) for set TIPMARKER and time  0.1820000E+02

         4  4.646702E-04 -3.537150E-04  8.424817E-07

 displacements (vx,vy,vz) for set TIPMARKER and time  0.1835000E+02

         4  4.706826E-04 -7.846991E-05  9.407294E-07

 displacements (vx,vy,vz) for set TIPMARKER and time  0.1850000E+02

         4  4.704102E-04  3.299465E-04  9.986968E-07

 displacements (vx,vy,vz) for set TIPMARKER and time  0.1865000E+02

         4  4.786724E-04  7.724537E-04  1.030532E-06

 displacements (vx,vy,vz) for set TIPMARKER and time  0.1880000E+02

         4  4.798761E-04  1.093053E-03  1.006749E-06

 displacements (vx,vy,vz) for set TIPMARKER and time  0.1895000E+02

         4  4.853020E-04  1.194970E-03  9.773310E-07

 displacements (vx,vy,vz) for set TIPMARKER and time  0.1910000E+02

         4  4.866156E-04  1.089748E-03  9.142713E-07

 displacements (vx,vy,vz) for set TIPMARKER and time  0.1925000E+02

         4  4.927509E-04  8.247598E-04  8.437592E-07

 displacements (vx,vy,vz) for set TIPMARKER and time  0.1940000E+02

         4  4.957799E-04  4.351165E-04  7.779046E-07

 displacements (vx,vy,vz) for set TIPMARKER and time  0.1955000E+02

         4  4.991470E-04 -6.223067E-06  7.635384E-07

 displacements (vx,vy,vz) for set TIPMARKER and time  0.1970000E+02

         4  5.021278E-04 -3.582161E-04  7.940559E-07

 displacements (vx,vy,vz) for set TIPMARKER and time  0.1985000E+02

         4  5.064696E-04 -4.968597E-04  8.474153E-07

 displacements (vx,vy,vz) for set TIPMARKER and time  0.2000000E+02

         4  5.126144E-04 -4.089950E-04  9.169478E-07

 displacements (vx,vy,vz) for set TIPMARKER and time  0.2015000E+02

         4  5.152605E-04 -1.559015E-04  9.933128E-07

 displacements (vx,vy,vz) for set TIPMARKER and time  0.2030000E+02

         4  5.208502E-04  2.125817E-04  1.071889E-06

 displacements (vx,vy,vz) for set TIPMARKER and time  0.2045000E+02

         4  5.233697E-04  6.409371E-04  1.096869E-06

 displacements (vx,vy,vz) for set TIPMARKER and time  0.2060000E+02

         4  5.313152E-04  1.009709E-03  1.082499E-06

 displacements (vx,vy,vz) for set TIPMARKER and time  0.2075000E+02

         4  5.315454E-04  1.182544E-03  1.021436E-06

 displacements (vx,vy,vz) for set TIPMARKER and time  0.2090000E+02

         4  5.369958E-04  1.114590E-03  9.709573E-07

 displacements (vx,vy,vz) for set TIPMARKER and time  0.2105000E+02

         4  5.357598E-04  8.644875E-04  8.951406E-07

 displacements (vx,vy,vz) for set TIPMARKER and time  0.2120000E+02

         4  5.426770E-04  5.047003E-04  8.433998E-07

 displacements (vx,vy,vz) for set TIPMARKER and time  0.2135000E+02

         4  5.428225E-04  8.701690E-05  8.095168E-07

 displacements (vx,vy,vz) for set TIPMARKER and time  0.2150000E+02

         4  5.474049E-04 -2.963071E-04  8.457325E-07

 displacements (vx,vy,vz) for set TIPMARKER and time  0.2165000E+02

         4  5.486494E-04 -5.087535E-04  9.071650E-07

 displacements (vx,vy,vz) for set TIPMARKER and time  0.2180000E+02

         4  5.551922E-04 -4.745375E-04  9.849091E-07

 displacements (vx,vy,vz) for set TIPMARKER and time  0.2195000E+02

         4  5.593804E-04 -2.362258E-04  1.051612E-06

 displacements (vx,vy,vz) for set TIPMARKER and time  0.2210000E+02

         4  5.639641E-04  1.164470E-04  1.116980E-06

 displacements (vx,vy,vz) for set TIPMARKER and time  0.2225000E+02

         4  5.682666E-04  5.194123E-04  1.154069E-06

 displacements (vx,vy,vz) for set TIPMARKER and time  0.2240000E+02

         4  5.733336E-04  9.019384E-04  1.138091E-06

 displacements (vx,vy,vz) for set TIPMARKER and time  0.2255000E+02

         4  5.798168E-04  1.143766E-03  1.081836E-06

 displacements (vx,vy,vz) for set TIPMARKER and time  0.2270000E+02

         4  5.819348E-04  1.144169E-03  1.009214E-06

 displacements (vx,vy,vz) for set TIPMARKER and time  0.2285000E+02

         4  5.865910E-04  9.177537E-04  9.575849E-07

 displacements (vx,vy,vz) for set TIPMARKER and time  0.2300000E+02

         4  5.876663E-04  5.631411E-04  9.054637E-07

 displacements (vx,vy,vz) for set TIPMARKER and time  0.2315000E+02

         4  5.943816E-04  1.639486E-04  8.886758E-07

 displacements (vx,vy,vz) for set TIPMARKER and time  0.2330000E+02

         4  5.935724E-04 -2.184649E-04  8.995164E-07

 displacements (vx,vy,vz) for set TIPMARKER and time  0.2345000E+02

         4  5.986910E-04 -4.865267E-04  9.765805E-07

 displacements (vx,vy,vz) for set TIPMARKER and time  0.2360000E+02

         4  5.979118E-04 -5.301317E-04  1.049336E-06

 displacements (vx,vy,vz) for set TIPMARKER and time  0.2375000E+02

         4  6.057171E-04 -3.298482E-04  1.125790E-06

 displacements (vx,vy,vz) for set TIPMARKER and time  0.2390000E+02

         4  6.072766E-04  2.167173E-05  1.165392E-06

 displacements (vx,vy,vz) for set TIPMARKER and time  0.2405000E+02

         4  6.130898E-04  4.175306E-04  1.199826E-06

 displacements (vx,vy,vz) for set TIPMARKER and time  0.2420000E+02

         4  6.154061E-04  7.926895E-04  1.185961E-06

 displacements (vx,vy,vz) for set TIPMARKER and time  0.2435000E+02

         4  6.222642E-04  1.072308E-03  1.134219E-06

 displacements (vx,vy,vz) for set TIPMARKER and time  0.2450000E+02

         4  6.263189E-04  1.151477E-03  1.053307E-06

 displacements (vx,vy,vz) for set TIPMARKER and time  0.2465000E+02

         4  6.299564E-04  9.810875E-04  9.922407E-07

 displacements (vx,vy,vz) for set TIPMARKER and time  0.2480000E+02

         4  6.331043E-04  6.318028E-04  9.597704E-07

 displacements (vx,vy,vz) for set TIPMARKER and time  0.2495000E+02

         4  6.367479E-04  2.276726E-04  9.489396E-07

 displacements (vx,vy,vz) for set TIPMARKER and time  0.2510000E+02

         4  6.423000E-04 -1.482364E-04  9.717991E-07

 displacements (vx,vy,vz) for set TIPMARKER and time  0.2525000E+02

         4  6.438264E-04 -4.377420E-04  1.029568E-06

 displacements (vx,vy,vz) for set TIPMARKER and time  0.2540000E+02

         4  6.487068E-04 -5.524324E-04  1.125384E-06

 displacements (vx,vy,vz) for set TIPMARKER and time  0.2555000E+02

         4  6.504171E-04 -4.227463E-04  1.196631E-06

 displacements (vx,vy,vz) for set TIPMARKER and time  0.2570000E+02

         4  6.583619E-04 -8.927358E-05  1.246072E-06

 displacements (vx,vy,vz) for set TIPMARKER and time  0.2585000E+02

         4  6.587246E-04  3.202006E-04  1.246996E-06

 displacements (vx,vy,vz) for set TIPMARKER and time  0.2600000E+02

         4  6.648987E-04  6.982329E-04  1.241810E-06

 displacements (vx,vy,vz) for set TIPMARKER and time  0.2615000E+02

         4  6.647853E-04  9.884937E-04  1.182512E-06

 displacements (vx,vy,vz) for set TIPMARKER and time  0.2630000E+02

         4  6.724527E-04  1.125310E-03  1.112158E-06

 displacements (vx,vy,vz) for set TIPMARKER and time  0.2645000E+02

         4  6.734347E-04  1.032933E-03  1.030832E-06

 displacements (vx,vy,vz) for set TIPMARKER and time  0.2660000E+02

         4  6.780314E-04  7.185719E-04  1.002458E-06

 displacements (vx,vy,vz) for set TIPMARKER and time  0.2675000E+02

         4  6.791514E-04  3.001715E-04  1.002231E-06

 displacements (vx,vy,vz) for set TIPMARKER and time  0.2690000E+02

         4  6.848167E-04 -9.180097E-05  1.035652E-06

 displacements (vx,vy,vz) for set TIPMARKER and time  0.2705000E+02

         4  6.883792E-04 -3.886613E-04  1.088910E-06

 displacements (vx,vy,vz) for set TIPMARKER and time  0.2720000E+02

         4  6.919526E-04 -5.434021E-04  1.173560E-06

 displacements (vx,vy,vz) for set TIPMARKER and time  0.2735000E+02

         4  6.958392E-04 -4.903518E-04  1.259966E-06

 displacements (vx,vy,vz) for set TIPMARKER and time  0.2750000E+02

         4  7.004738E-04 -2.089422E-04  1.307677E-06

 displacements (vx,vy,vz) for set TIPMARKER and time  0.2765000E+02

         4  7.074079E-04  2.076824E-04  1.313544E-06

 displacements (vx,vy,vz) for set TIPMARKER and time  0.2780000E+02

         4  7.099584E-04  6.130162E-04  1.282395E-06

 displacements (vx,vy,vz) for set TIPMARKER and time  0.2795000E+02

         4  7.155632E-04  9.158843E-04  1.242922E-06

 displacements (vx,vy,vz) for set TIPMARKER and time  0.2810000E+02

         4  7.171674E-04  1.078659E-03  1.168473E-06

 displacements (vx,vy,vz) for set TIPMARKER and time  0.2825000E+02

         4  7.245472E-04  1.053265E-03  1.102083E-06

 displacements (vx,vy,vz) for set TIPMARKER and time  0.2840000E+02

         4  7.237014E-04  8.047496E-04  1.047531E-06

 displacements (vx,vy,vz) for set TIPMARKER and time  0.2855000E+02

         4  7.285741E-04  3.946202E-04  1.063364E-06

 displacements (vx,vy,vz) for set TIPMARKER and time  0.2870000E+02

         4  7.274040E-04 -3.026734E-05  1.095933E-06

 displacements (vx,vy,vz) for set TIPMARKER and time  0.2885000E+02

         4  7.342840E-04 -3.505048E-04  1.162202E-06

 displacements (vx,vy,vz) for set TIPMARKER and time  0.2900000E+02

         4  7.352826E-04 -5.240358E-04  1.225703E-06

 displacements (vx,vy,vz) for set TIPMARKER and time  0.2915000E+02

         4  7.403428E-04 -5.236645E-04  1.310226E-06

 displacements (vx,vy,vz) for set TIPMARKER and time  0.2930000E+02

         4  7.426001E-04 -3.132847E-04  1.361449E-06

 displacements (vx,vy,vz) for set TIPMARKER and time  0.2945000E+02

         4  7.494550E-04  7.591226E-05  1.369772E-06

 displacements (vx,vy,vz) for set TIPMARKER and time  0.2960000E+02

         4  7.543440E-04  5.117590E-04  1.328986E-06

 displacements (vx,vy,vz) for set TIPMARKER and time  0.2975000E+02

         4  7.586389E-04  8.519312E-04  1.275385E-06

 displacements (vx,vy,vz) for set TIPMARKER and time  0.2990000E+02

         4  7.628146E-04  1.034202E-03  1.218391E-06

 displacements (vx,vy,vz) for set TIPMARKER and time  0.3000000E+02

         4  7.629754E-04  1.037086E-03  1.164354E-06
