
 displacements (vx,vy,vz) for set TIPMARKER and time  0.2500000E-01

         7  3.480134E-08  4.723679E-07  4.795785E-10

 displacements (vx,vy,vz) for set TIPMARKER and time  0.5000000E-01

         7  2.634035E-07  2.298489E-06  3.158198E-09

 displacements (vx,vy,vz) for set TIPMARKER and time  0.8750000E-01

         7  1.021683E-06  9.620339E-06  1.476005E-08

 displacements (vx,vy,vz) for set TIPMARKER and time  0.1250000E+00

         7  2.147213E-06  2.418517E-05  2.424108E-08

 displacements (vx,vy,vz) for set TIPMARKER and time  0.1625000E+00

         7  3.573154E-06  4.773931E-05  1.370675E-08

 displacements (vx,vy,vz) for set TIPMARKER and time  0.2000000E+00

         7  5.218703E-06  8.330391E-05 -2.582342E-08

 displacements (vx,vy,vz) for set TIPMARKER and time  0.2375000E+00

         7  7.007690E-06  1.349150E-04 -9.281537E-08

 displacements (vx,vy,vz) for set TIPMARKER and time  0.2750000E+00

         7  8.845223E-06  2.047330E-04 -1.839796E-07

 displacements (vx,vy,vz) for set TIPMARKER and time  0.3125000E+00

         7  1.062864E-05  2.918707E-04 -3.040769E-07

 displacements (vx,vy,vz) for set TIPMARKER and time  0.3500000E+00

         7  1.225515E-05  3.941655E-04 -4.587578E-07

 displacements (vx,vy,vz) for set TIPMARKER and time  0.3875000E+00

         7  1.364073E-05  5.090249E-04 -6.429470E-07

 displacements (vx,vy,vz) for set TIPMARKER and time  0.4437500E+00

         7  1.495521E-05  6.917528E-04 -9.272406E-07

 displacements (vx,vy,vz) for set TIPMARKER and time  0.5281250E+00

         7  1.493625E-05  9.276895E-04 -1.234738E-06

 displacements (vx,vy,vz) for set TIPMARKER and time  0.6546875E+00

         7  1.860556E-05  1.004181E-03 -9.048085E-07

 displacements (vx,vy,vz) for set TIPMARKER and time  0.7812500E+00

         7  2.327709E-05  6.201765E-04  6.709284E-07

 displacements (vx,vy,vz) for set TIPMARKER and time  0.9078125E+00

         7  2.576330E-05 -1.024941E-04  2.935258E-06

 displacements (vx,vy,vz) for set TIPMARKER and time  0.1000000E+01

         7  2.552647E-05 -6.199294E-04  4.314261E-06
