
 displacements (vx,vy,vz) for set TIPMARKER and time  0.2500000E-01

         4  3.730603E-07  2.107415E-06  2.723005E-09

 displacements (vx,vy,vz) for set TIPMARKER and time  0.5000000E-01

         4  1.226580E-06  9.627746E-06  7.855716E-09

 displacements (vx,vy,vz) for set TIPMARKER and time  0.7500000E-01

         4  2.397820E-06  2.473464E-05  1.427905E-08

 displacements (vx,vy,vz) for set TIPMARKER and time  0.1000000E+00

         4  3.697277E-06  4.832981E-05  2.027213E-08

 displacements (vx,vy,vz) for set TIPMARKER and time  0.1250000E+00

         4  4.885681E-06  8.014411E-05  2.430061E-08

 displacements (vx,vy,vz) for set TIPMARKER and time  0.1500000E+00

         4  5.773738E-06  1.186794E-04  2.603280E-08

 displacements (vx,vy,vz) for set TIPMARKER and time  0.1750000E+00

         4  6.182654E-06  1.603200E-04  2.589654E-08

 displacements (vx,vy,vz) for set TIPMARKER and time  0.2125000E+00

         4  6.572955E-06  2.140882E-04  2.561588E-08

 displacements (vx,vy,vz) for set TIPMARKER and time  0.2687500E+00

         4  8.547231E-06  2.549347E-04  3.733814E-08

 displacements (vx,vy,vz) for set TIPMARKER and time  0.3250000E+00

         4  1.017715E-05  2.726326E-04  6.245070E-08

 displacements (vx,vy,vz) for set TIPMARKER and time  0.3812500E+00

         4  1.010678E-05  3.276098E-04  8.749434E-08

 displacements (vx,vy,vz) for set TIPMARKER and time  0.4375000E+00

         4  1.227300E-05  4.574827E-04  1.086094E-07

 displacements (vx,vy,vz) for set TIPMARKER and time  0.4937500E+00

         4  1.561135E-05  6.319282E-04  1.211054E-07

 displacements (vx,vy,vz) for set TIPMARKER and time  0.5500000E+00

         4  1.727719E-05  7.682295E-04  1.296147E-07

 displacements (vx,vy,vz) for set TIPMARKER and time  0.6062500E+00

         4  1.774117E-05  8.182058E-04  1.463093E-07

 displacements (vx,vy,vz) for set TIPMARKER and time  0.6625000E+00

         4  1.951434E-05  8.190888E-04  1.763789E-07

 displacements (vx,vy,vz) for set TIPMARKER and time  0.7187500E+00

         4  2.116721E-05  8.425490E-04  2.020365E-07

 displacements (vx,vy,vz) for set TIPMARKER and time  0.7750000E+00

         4  2.120084E-05  9.177830E-04  2.099352E-07

 displacements (vx,vy,vz) for set TIPMARKER and time  0.8312500E+00

         4  2.356139E-05  1.008064E-03  2.162879E-07

 displacements (vx,vy,vz) for set TIPMARKER and time  0.8875000E+00

         4  2.645766E-05  1.053994E-03  2.251372E-07

 displacements (vx,vy,vz) for set TIPMARKER and time  0.9437500E+00

         4  2.745680E-05  1.036722E-03  2.317602E-07

 displacements (vx,vy,vz) for set TIPMARKER and time  0.1000000E+01

         4  2.794754E-05  9.835500E-04  2.348161E-07

 displacements (vx,vy,vz) for set TIPMARKER and time  0.1084375E+01

         4  3.090452E-05  8.827919E-04  2.335383E-07

 displacements (vx,vy,vz) for set TIPMARKER and time  0.1168750E+01

         4  3.020952E-05  7.847092E-04  2.212935E-07

 displacements (vx,vy,vz) for set TIPMARKER and time  0.1253125E+01

         4  3.422808E-05  7.126515E-04  2.188633E-07

 displacements (vx,vy,vz) for set TIPMARKER and time  0.1337500E+01

         4  3.564441E-05  6.417647E-04  1.933144E-07

 displacements (vx,vy,vz) for set TIPMARKER and time  0.1421875E+01

         4  3.791180E-05  5.049332E-04  1.719286E-07

 displacements (vx,vy,vz) for set TIPMARKER and time  0.1506250E+01

         4  3.964290E-05  3.187167E-04  1.696675E-07

 displacements (vx,vy,vz) for set TIPMARKER and time  0.1590625E+01

         4  4.121306E-05  2.322992E-04  1.680755E-07

 displacements (vx,vy,vz) for set TIPMARKER and time  0.1675000E+01

         4  4.566019E-05  2.880854E-04  1.530880E-07

 displacements (vx,vy,vz) for set TIPMARKER and time  0.1759375E+01

         4  4.568357E-05  3.098378E-04  1.282607E-07

 displacements (vx,vy,vz) for set TIPMARKER and time  0.1843750E+01

         4  4.842715E-05  2.137475E-04  1.465054E-07

 displacements (vx,vy,vz) for set TIPMARKER and time  0.1928125E+01

         4  4.867868E-05  1.866261E-04  1.713883E-07

 displacements (vx,vy,vz) for set TIPMARKER and time  0.2012500E+01

         4  5.289421E-05  3.671410E-04  1.815554E-07

 displacements (vx,vy,vz) for set TIPMARKER and time  0.2096875E+01

         4  5.622478E-05  5.781421E-04  1.813436E-07

 displacements (vx,vy,vz) for set TIPMARKER and time  0.2181250E+01

         4  5.772014E-05  6.167486E-04  2.074164E-07

 displacements (vx,vy,vz) for set TIPMARKER and time  0.2265625E+01

         4  6.016951E-05  6.058785E-04  2.557811E-07

 displacements (vx,vy,vz) for set TIPMARKER and time  0.2350000E+01

         4  6.101775E-05  7.568278E-04  2.756890E-07

 displacements (vx,vy,vz) for set TIPMARKER and time  0.2434375E+01

         4  6.602212E-05  9.830365E-04  2.844378E-07

 displacements (vx,vy,vz) for set TIPMARKER and time  0.2518750E+01

         4  6.654891E-05  1.051516E-03  2.947278E-07

 displacements (vx,vy,vz) for set TIPMARKER and time  0.2603125E+01

         4  6.890391E-05  9.686281E-04  3.266959E-07

 displacements (vx,vy,vz) for set TIPMARKER and time  0.2687500E+01

         4  7.046965E-05  9.362082E-04  3.408402E-07

 displacements (vx,vy,vz) for set TIPMARKER and time  0.2771875E+01

         4  7.348627E-05  9.966845E-04  3.345215E-07

 displacements (vx,vy,vz) for set TIPMARKER and time  0.2856250E+01

         4  7.722068E-05  9.932681E-04  3.271849E-07

 displacements (vx,vy,vz) for set TIPMARKER and time  0.2940625E+01

         4  7.738118E-05  8.497302E-04  3.188893E-07

 displacements (vx,vy,vz) for set TIPMARKER and time  0.3025000E+01

         4  8.013931E-05  6.683936E-04  3.160262E-07

 displacements (vx,vy,vz) for set TIPMARKER and time  0.3109375E+01

         4  7.984794E-05  5.594533E-04  2.953067E-07

 displacements (vx,vy,vz) for set TIPMARKER and time  0.3193750E+01

         4  8.391423E-05  5.086304E-04  2.810124E-07

 displacements (vx,vy,vz) for set TIPMARKER and time  0.3278125E+01

         4  8.568137E-05  4.340003E-04  2.601159E-07

 displacements (vx,vy,vz) for set TIPMARKER and time  0.3362500E+01

         4  8.761695E-05  3.034445E-04  2.475674E-07

 displacements (vx,vy,vz) for set TIPMARKER and time  0.3446875E+01

         4  8.976834E-05  1.814928E-04  2.481273E-07

 displacements (vx,vy,vz) for set TIPMARKER and time  0.3531250E+01

         4  9.110911E-05  1.677302E-04  2.492159E-07

 displacements (vx,vy,vz) for set TIPMARKER and time  0.3615625E+01

         4  9.559990E-05  2.598041E-04  2.503312E-07

 displacements (vx,vy,vz) for set TIPMARKER and time  0.3700000E+01

         4  9.528375E-05  3.317971E-04  2.411168E-07

 displacements (vx,vy,vz) for set TIPMARKER and time  0.3784375E+01

         4  9.818367E-05  3.220923E-04  2.647553E-07

 displacements (vx,vy,vz) for set TIPMARKER and time  0.3868750E+01

         4  9.900062E-05  3.517346E-04  2.958289E-07

 displacements (vx,vy,vz) for set TIPMARKER and time  0.3953125E+01

         4  1.027611E-04  5.320063E-04  3.193328E-07

 displacements (vx,vy,vz) for set TIPMARKER and time  0.4037500E+01

         4  1.064473E-04  7.487144E-04  3.289768E-07

 displacements (vx,vy,vz) for set TIPMARKER and time  0.4121875E+01

         4  1.077594E-04  8.214201E-04  3.486671E-07

 displacements (vx,vy,vz) for set TIPMARKER and time  0.4206250E+01

         4  1.104151E-04  8.003199E-04  3.904176E-07

 displacements (vx,vy,vz) for set TIPMARKER and time  0.4290625E+01

         4  1.104463E-04  8.756747E-04  4.092595E-07

 displacements (vx,vy,vz) for set TIPMARKER and time  0.4375000E+01

         4  1.152890E-04  1.039084E-03  4.134760E-07

 displacements (vx,vy,vz) for set TIPMARKER and time  0.4459375E+01

         4  1.164023E-04  1.084905E-03  4.076322E-07

 displacements (vx,vy,vz) for set TIPMARKER and time  0.4543750E+01

         4  1.185557E-04  9.535414E-04  4.223762E-07

 displacements (vx,vy,vz) for set TIPMARKER and time  0.4628125E+01

         4  1.201350E-04  8.256439E-04  4.305141E-07

 displacements (vx,vy,vz) for set TIPMARKER and time  0.4712500E+01

         4  1.225829E-04  8.161034E-04  4.151571E-07

 displacements (vx,vy,vz) for set TIPMARKER and time  0.4796875E+01

         4  1.266406E-04  8.007135E-04  3.936203E-07

 displacements (vx,vy,vz) for set TIPMARKER and time  0.4881250E+01

         4  1.264423E-04  6.456035E-04  3.736606E-07

 displacements (vx,vy,vz) for set TIPMARKER and time  0.4965625E+01

         4  1.290422E-04  4.302387E-04  3.716012E-07

 displacements (vx,vy,vz) for set TIPMARKER and time  0.5050000E+01

         4  1.291202E-04  3.167502E-04  3.547395E-07

 displacements (vx,vy,vz) for set TIPMARKER and time  0.5134375E+01

         4  1.331410E-04  3.119261E-04  3.395136E-07

 displacements (vx,vy,vz) for set TIPMARKER and time  0.5218750E+01

         4  1.354753E-04  2.896481E-04  3.248829E-07

 displacements (vx,vy,vz) for set TIPMARKER and time  0.5303125E+01

         4  1.370904E-04  1.975604E-04  3.243778E-07

 displacements (vx,vy,vz) for set TIPMARKER and time  0.5387500E+01

         4  1.395459E-04  1.301726E-04  3.376634E-07

 displacements (vx,vy,vz) for set TIPMARKER and time  0.5471875E+01

         4  1.405682E-04  1.892388E-04  3.460800E-07

 displacements (vx,vy,vz) for set TIPMARKER and time  0.5556250E+01

         4  1.452304E-04  3.386619E-04  3.589072E-07

 displacements (vx,vy,vz) for set TIPMARKER and time  0.5640625E+01

         4  1.454417E-04  4.500489E-04  3.644806E-07

 displacements (vx,vy,vz) for set TIPMARKER and time  0.5725000E+01

         4  1.483181E-04  4.819158E-04  3.945492E-07

 displacements (vx,vy,vz) for set TIPMARKER and time  0.5809375E+01

         4  1.495997E-04  5.404938E-04  4.276790E-07

 displacements (vx,vy,vz) for set TIPMARKER and time  0.5893750E+01

         4  1.529733E-04  7.112684E-04  4.525910E-07

 displacements (vx,vy,vz) for set TIPMARKER and time  0.5978125E+01

         4  1.568800E-04  9.002412E-04  4.640135E-07

 displacements (vx,vy,vz) for set TIPMARKER and time  0.6062500E+01

         4  1.578421E-04  9.550224E-04  4.745055E-07

 displacements (vx,vy,vz) for set TIPMARKER and time  0.6146875E+01

         4  1.606042E-04  9.014489E-04  5.031634E-07

 displacements (vx,vy,vz) for set TIPMARKER and time  0.6231250E+01

         4  1.600219E-04  9.037723E-04  5.111966E-07

 displacements (vx,vy,vz) for set TIPMARKER and time  0.6315625E+01

         4  1.645703E-04  9.890974E-04  5.068509E-07

 displacements (vx,vy,vz) for set TIPMARKER and time  0.6400000E+01

         4  1.661627E-04  9.915353E-04  4.877551E-07

 displacements (vx,vy,vz) for set TIPMARKER and time  0.6484375E+01

         4  1.680970E-04  8.261605E-04  4.855994E-07

 displacements (vx,vy,vz) for set TIPMARKER and time  0.6568750E+01

         4  1.698224E-04  6.393957E-04  4.862877E-07

 displacements (vx,vy,vz) for set TIPMARKER and time  0.6653125E+01

         4  1.716515E-04  5.779671E-04  4.671640E-07

 displacements (vx,vy,vz) for set TIPMARKER and time  0.6737500E+01

         4  1.759393E-04  5.614867E-04  4.416457E-07

 displacements (vx,vy,vz) for set TIPMARKER and time  0.6821875E+01

         4  1.754504E-04  4.340086E-04  4.167913E-07

 displacements (vx,vy,vz) for set TIPMARKER and time  0.6906250E+01

         4  1.780142E-04  2.334887E-04  4.194070E-07

 displacements (vx,vy,vz) for set TIPMARKER and time  0.6990625E+01

         4  1.784399E-04  1.367502E-04  4.145087E-07

 displacements (vx,vy,vz) for set TIPMARKER and time  0.7075000E+01

         4  1.823250E-04  1.854889E-04  4.080948E-07

 displacements (vx,vy,vz) for set TIPMARKER and time  0.7159375E+01

         4  1.852494E-04  2.387615E-04  4.034062E-07

 displacements (vx,vy,vz) for set TIPMARKER and time  0.7243750E+01

         4  1.866210E-04  2.066211E-04  4.145047E-07

 displacements (vx,vy,vz) for set TIPMARKER and time  0.7328125E+01

         4  1.892804E-04  1.839073E-04  4.420825E-07

 displacements (vx,vy,vz) for set TIPMARKER and time  0.7412500E+01

         4  1.898840E-04  2.919046E-04  4.588354E-07

 displacements (vx,vy,vz) for set TIPMARKER and time  0.7496875E+01

         4  1.946695E-04  4.874840E-04  4.780850E-07

 displacements (vx,vy,vz) for set TIPMARKER and time  0.7581250E+01

         4  1.954312E-04  6.235040E-04  4.901569E-07

 displacements (vx,vy,vz) for set TIPMARKER and time  0.7665625E+01

         4  1.981354E-04  6.589995E-04  5.210435E-07

 displacements (vx,vy,vz) for set TIPMARKER and time  0.7750000E+01

         4  1.997590E-04  7.061896E-04  5.508702E-07

 displacements (vx,vy,vz) for set TIPMARKER and time  0.7834375E+01

         4  2.027013E-04  8.463445E-04  5.679418E-07

 displacements (vx,vy,vz) for set TIPMARKER and time  0.7918750E+01

         4  2.067908E-04  9.893033E-04  5.722373E-07

 displacements (vx,vy,vz) for set TIPMARKER and time  0.8003125E+01

         4  2.072918E-04  9.966809E-04  5.697735E-07

 displacements (vx,vy,vz) for set TIPMARKER and time  0.8087500E+01

         4  2.100598E-04  8.919514E-04  5.834799E-07

 displacements (vx,vy,vz) for set TIPMARKER and time  0.8171875E+01

         4  2.097658E-04  8.278018E-04  5.799267E-07

 displacements (vx,vy,vz) for set TIPMARKER and time  0.8256250E+01

         4  2.140099E-04  8.460421E-04  5.661860E-07

 displacements (vx,vy,vz) for set TIPMARKER and time  0.8340625E+01

         4  2.160154E-04  8.089272E-04  5.389330E-07

 displacements (vx,vy,vz) for set TIPMARKER and time  0.8425000E+01

         4  2.177071E-04  6.264014E-04  5.264471E-07

 displacements (vx,vy,vz) for set TIPMARKER and time  0.8509375E+01

         4  2.196432E-04  4.185146E-04  5.244092E-07

 displacements (vx,vy,vz) for set TIPMARKER and time  0.8593750E+01

         4  2.209075E-04  3.394071E-04  5.078698E-07

 displacements (vx,vy,vz) for set TIPMARKER and time  0.8678125E+01

         4  2.253498E-04  3.415272E-04  4.881417E-07

 displacements (vx,vy,vz) for set TIPMARKER and time  0.8762500E+01

         4  2.247429E-04  2.664303E-04  4.674796E-07

 displacements (vx,vy,vz) for set TIPMARKER and time  0.8846875E+01

         4  2.273174E-04  1.152636E-04  4.791041E-07

 displacements (vx,vy,vz) for set TIPMARKER and time  0.8931250E+01

         4  2.281314E-04  5.588534E-05  4.897936E-07

 displacements (vx,vy,vz) for set TIPMARKER and time  0.9015625E+01

         4  2.317804E-04  1.570804E-04  4.965004E-07

 displacements (vx,vy,vz) for set TIPMARKER and time  0.9100000E+01

         4  2.352463E-04  2.831169E-04  5.027543E-07

 displacements (vx,vy,vz) for set TIPMARKER and time  0.9184375E+01

         4  2.363835E-04  3.119826E-04  5.214937E-07

 displacements (vx,vy,vz) for set TIPMARKER and time  0.9268750E+01

         4  2.391972E-04  3.199287E-04  5.582140E-07

 displacements (vx,vy,vz) for set TIPMARKER and time  0.9353125E+01

         4  2.392764E-04  4.448487E-04  5.788497E-07

 displacements (vx,vy,vz) for set TIPMARKER and time  0.9437500E+01

         4  2.440767E-04  6.567868E-04  5.976142E-07

 displacements (vx,vy,vz) for set TIPMARKER and time  0.9521875E+01

         4  2.453691E-04  7.954298E-04  6.067125E-07

 displacements (vx,vy,vz) for set TIPMARKER and time  0.9606250E+01

         4  2.478223E-04  8.064063E-04  6.302115E-07

 displacements (vx,vy,vz) for set TIPMARKER and time  0.9690625E+01

         4  2.496700E-04  8.085908E-04  6.512593E-07

 displacements (vx,vy,vz) for set TIPMARKER and time  0.9775000E+01

         4  2.521102E-04  8.963458E-04  6.551950E-07

 displacements (vx,vy,vz) for set TIPMARKER and time  0.9859375E+01

         4  2.563444E-04  9.855121E-04  6.474535E-07

 displacements (vx,vy,vz) for set TIPMARKER and time  0.9943750E+01

         4  2.563620E-04  9.391801E-04  6.308980E-07

 displacements (vx,vy,vz) for set TIPMARKER and time  0.1002812E+02

         4  2.590562E-04  7.803260E-04  6.321796E-07

 displacements (vx,vy,vz) for set TIPMARKER and time  0.1011250E+02

         4  2.590741E-04  6.624020E-04  6.205169E-07

 displacements (vx,vy,vz) for set TIPMARKER and time  0.1019687E+02

         4  2.630216E-04  6.379156E-04  6.015897E-07

 displacements (vx,vy,vz) for set TIPMARKER and time  0.1028125E+02

         4  2.654414E-04  5.838012E-04  5.735371E-07

 displacements (vx,vy,vz) for set TIPMARKER and time  0.1036562E+02

         4  2.668698E-04  4.073064E-04  5.598984E-07

 displacements (vx,vy,vz) for set TIPMARKER and time  0.1049219E+02

         4  2.675409E-04  1.879785E-04  5.580855E-07

 displacements (vx,vy,vz) for set TIPMARKER and time  0.1068203E+02

         4  2.715484E-04  2.435845E-04  5.489726E-07

 displacements (vx,vy,vz) for set TIPMARKER and time  0.1087187E+02

         4  2.746399E-04  2.253528E-04  5.674991E-07

 displacements (vx,vy,vz) for set TIPMARKER and time  0.1106172E+02

         4  2.795127E-04  3.844201E-04  6.462059E-07

 displacements (vx,vy,vz) for set TIPMARKER and time  0.1125156E+02

         4  2.848837E-04  6.756895E-04  6.488484E-07

 displacements (vx,vy,vz) for set TIPMARKER and time  0.1144141E+02

         4  2.907077E-04  7.975162E-04  7.181864E-07

 displacements (vx,vy,vz) for set TIPMARKER and time  0.1163125E+02

         4  2.964454E-04  8.624921E-04  6.986944E-07

 displacements (vx,vy,vz) for set TIPMARKER and time  0.1182109E+02

         4  3.035930E-04  8.530068E-04  6.911203E-07

 displacements (vx,vy,vz) for set TIPMARKER and time  0.1201094E+02

         4  3.092146E-04  5.679334E-04  6.565153E-07

 displacements (vx,vy,vz) for set TIPMARKER and time  0.1220078E+02

         4  3.169853E-04  4.189670E-04  6.460228E-07

 displacements (vx,vy,vz) for set TIPMARKER and time  0.1239062E+02

         4  3.237191E-04  2.186976E-04  6.185548E-07

 displacements (vx,vy,vz) for set TIPMARKER and time  0.1258047E+02

         4  3.317560E-04  1.380256E-04  6.803025E-07

 displacements (vx,vy,vz) for set TIPMARKER and time  0.1277031E+02

         4  3.397710E-04  2.660270E-04  6.885579E-07

 displacements (vx,vy,vz) for set TIPMARKER and time  0.1296016E+02

         4  3.485743E-04  4.329114E-04  7.787307E-07

 displacements (vx,vy,vz) for set TIPMARKER and time  0.1315000E+02

         4  3.566822E-04  6.346150E-04  8.015001E-07

 displacements (vx,vy,vz) for set TIPMARKER and time  0.1333984E+02

         4  3.659833E-04  8.455201E-04  8.439446E-07

 displacements (vx,vy,vz) for set TIPMARKER and time  0.1352969E+02

         4  3.735493E-04  8.236291E-04  8.243964E-07

 displacements (vx,vy,vz) for set TIPMARKER and time  0.1371953E+02

         4  3.822020E-04  7.586360E-04  8.251981E-07

 displacements (vx,vy,vz) for set TIPMARKER and time  0.1390937E+02

         4  3.894638E-04  5.531332E-04  7.675771E-07

 displacements (vx,vy,vz) for set TIPMARKER and time  0.1409922E+02

         4  3.972053E-04  3.128864E-04  7.870137E-07

 displacements (vx,vy,vz) for set TIPMARKER and time  0.1428906E+02

         4  4.042442E-04  1.797992E-04  7.615225E-07

 displacements (vx,vy,vz) for set TIPMARKER and time  0.1447891E+02

         4  4.117744E-04  1.489221E-04  8.225925E-07

 displacements (vx,vy,vz) for set TIPMARKER and time  0.1466875E+02

         4  4.183437E-04  2.372870E-04  8.499680E-07

 displacements (vx,vy,vz) for set TIPMARKER and time  0.1485859E+02

         4  4.256204E-04  4.718567E-04  9.150579E-07

 displacements (vx,vy,vz) for set TIPMARKER and time  0.1504844E+02

         4  4.314563E-04  6.544000E-04  9.289964E-07

 displacements (vx,vy,vz) for set TIPMARKER and time  0.1523828E+02

         4  4.374507E-04  8.042133E-04  9.522663E-07

 displacements (vx,vy,vz) for set TIPMARKER and time  0.1542812E+02

         4  4.421591E-04  8.223375E-04  9.084131E-07

 displacements (vx,vy,vz) for set TIPMARKER and time  0.1561797E+02

         4  4.463163E-04  6.779357E-04  8.932145E-07

 displacements (vx,vy,vz) for set TIPMARKER and time  0.1580781E+02

         4  4.495447E-04  4.849158E-04  8.401837E-07

 displacements (vx,vy,vz) for set TIPMARKER and time  0.1599766E+02

         4  4.522789E-04  2.670972E-04  8.353929E-07

 displacements (vx,vy,vz) for set TIPMARKER and time  0.1618750E+02

         4  4.542087E-04  1.272683E-04  8.346383E-07

 displacements (vx,vy,vz) for set TIPMARKER and time  0.1637734E+02

         4  4.559040E-04  1.361454E-04  8.672206E-07

 displacements (vx,vy,vz) for set TIPMARKER and time  0.1656719E+02

         4  4.569156E-04  2.627155E-04  8.990560E-07

 displacements (vx,vy,vz) for set TIPMARKER and time  0.1675703E+02

         4  4.572920E-04  4.610363E-04  9.301276E-07

 displacements (vx,vy,vz) for set TIPMARKER and time  0.1704180E+02

         4  4.677249E-04  1.433426E-04  8.836525E-07

 displacements (vx,vy,vz) for set TIPMARKER and time  0.1732656E+02

         4  4.649115E-04 -1.124384E-03  6.597524E-07

 displacements (vx,vy,vz) for set TIPMARKER and time  0.1761133E+02

         4  4.774480E-04 -2.086091E-03  4.658554E-07

 displacements (vx,vy,vz) for set TIPMARKER and time  0.1789609E+02

         4  4.800088E-04 -1.743145E-03  5.367118E-07

 displacements (vx,vy,vz) for set TIPMARKER and time  0.1818086E+02

         4  4.915263E-04 -4.828455E-04  8.322783E-07

 displacements (vx,vy,vz) for set TIPMARKER and time  0.1846563E+02

         4  4.996792E-04  3.359943E-04  1.001412E-06

 displacements (vx,vy,vz) for set TIPMARKER and time  0.1875039E+02

         4  5.100732E-04  2.942150E-04  9.877815E-07

 displacements (vx,vy,vz) for set TIPMARKER and time  0.1903516E+02

         4  5.164927E-04 -2.092608E-04  8.610360E-07

 displacements (vx,vy,vz) for set TIPMARKER and time  0.1931992E+02

         4  5.204682E-04 -1.186431E-03  7.018079E-07

 displacements (vx,vy,vz) for set TIPMARKER and time  0.1960469E+02

         4  5.311513E-04 -2.017408E-03  5.871497E-07

 displacements (vx,vy,vz) for set TIPMARKER and time  0.1988945E+02

         4  5.362249E-04 -1.683166E-03  6.698246E-07

 displacements (vx,vy,vz) for set TIPMARKER and time  0.2017422E+02

         4  5.484646E-04 -3.564005E-04  9.758953E-07

 displacements (vx,vy,vz) for set TIPMARKER and time  0.2045898E+02

         4  5.502519E-04  5.509709E-04  1.123477E-06

 displacements (vx,vy,vz) for set TIPMARKER and time  0.2074375E+02

         4  5.639257E-04  2.637477E-04  1.036186E-06

 displacements (vx,vy,vz) for set TIPMARKER and time  0.2102852E+02

         4  5.615230E-04 -5.256970E-04  8.125158E-07

 displacements (vx,vy,vz) for set TIPMARKER and time  0.2131328E+02

         4  5.707168E-04 -1.290213E-03  7.148429E-07

 displacements (vx,vy,vz) for set TIPMARKER and time  0.2159805E+02

         4  5.726572E-04 -1.827890E-03  6.898710E-07

 displacements (vx,vy,vz) for set TIPMARKER and time  0.2188281E+02

         4  5.860269E-04 -1.514792E-03  8.139173E-07

 displacements (vx,vy,vz) for set TIPMARKER and time  0.2216758E+02

         4  5.925158E-04 -2.822964E-04  1.055085E-06

 displacements (vx,vy,vz) for set TIPMARKER and time  0.2245234E+02

         4  6.021304E-04  6.768783E-04  1.203081E-06

 displacements (vx,vy,vz) for set TIPMARKER and time  0.2273711E+02

         4  6.108811E-04  2.979690E-04  1.063287E-06

 displacements (vx,vy,vz) for set TIPMARKER and time  0.2302188E+02

         4  6.172525E-04 -7.737271E-04  8.135490E-07

 displacements (vx,vy,vz) for set TIPMARKER and time  0.2330664E+02

         4  6.248846E-04 -1.465535E-03  7.430029E-07

 displacements (vx,vy,vz) for set TIPMARKER and time  0.2359141E+02

         4  6.279649E-04 -1.630236E-03  8.345782E-07

 displacements (vx,vy,vz) for set TIPMARKER and time  0.2387617E+02

         4  6.420212E-04 -1.242993E-03  9.952053E-07

 displacements (vx,vy,vz) for set TIPMARKER and time  0.2416094E+02

         4  6.449572E-04 -2.182837E-04  1.143194E-06

 displacements (vx,vy,vz) for set TIPMARKER and time  0.2444570E+02

         4  6.570221E-04  6.787984E-04  1.240342E-06

 displacements (vx,vy,vz) for set TIPMARKER and time  0.2473047E+02

         4  6.550864E-04  3.340563E-04  1.070305E-06

 displacements (vx,vy,vz) for set TIPMARKER and time  0.2501523E+02

         4  6.670332E-04 -9.097996E-04  8.316022E-07

 displacements (vx,vy,vz) for set TIPMARKER and time  0.2530000E+02

         4  6.672569E-04 -1.654862E-03  7.595070E-07

 displacements (vx,vy,vz) for set TIPMARKER and time  0.2558477E+02

         4  6.771792E-04 -1.491352E-03  9.558393E-07

 displacements (vx,vy,vz) for set TIPMARKER and time  0.2586953E+02

         4  6.840814E-04 -9.022118E-04  1.142165E-06

 displacements (vx,vy,vz) for set TIPMARKER and time  0.2615430E+02

         4  6.964868E-04 -1.033084E-04  1.230754E-06

 displacements (vx,vy,vz) for set TIPMARKER and time  0.2643906E+02

         4  7.041880E-04  5.783183E-04  1.224516E-06

 displacements (vx,vy,vz) for set TIPMARKER and time  0.2672383E+02

         4  7.099176E-04  3.007059E-04  1.091109E-06

 displacements (vx,vy,vz) for set TIPMARKER and time  0.2700859E+02

         4  7.193674E-04 -9.430610E-04  8.926490E-07

 displacements (vx,vy,vz) for set TIPMARKER and time  0.2729336E+02

         4  7.232809E-04 -1.786617E-03  8.489427E-07

 displacements (vx,vy,vz) for set TIPMARKER and time  0.2757813E+02

         4  7.337242E-04 -1.433551E-03  1.083066E-06

 displacements (vx,vy,vz) for set TIPMARKER and time  0.2786289E+02

         4  7.360245E-04 -5.717093E-04  1.292956E-06

 displacements (vx,vy,vz) for set TIPMARKER and time  0.2814766E+02

         4  7.511996E-04  8.532700E-05  1.324321E-06

 displacements (vx,vy,vz) for set TIPMARKER and time  0.2843242E+02

         4  7.498681E-04  4.367244E-04  1.190595E-06

 displacements (vx,vy,vz) for set TIPMARKER and time  0.2871719E+02

         4  7.599319E-04  1.615348E-04  1.079725E-06

 displacements (vx,vy,vz) for set TIPMARKER and time  0.2900195E+02

         4  7.600758E-04 -9.222167E-04  9.460507E-07

 displacements (vx,vy,vz) for set TIPMARKER and time  0.2928672E+02

         4  7.717471E-04 -1.801844E-03  9.598685E-07

 displacements (vx,vy,vz) for set TIPMARKER and time  0.2957148E+02

         4  7.762241E-04 -1.417987E-03  1.167038E-06

 displacements (vx,vy,vz) for set TIPMARKER and time  0.2985625E+02

         4  7.864158E-04 -3.185001E-04  1.403148E-06

 displacements (vx,vy,vz) for set TIPMARKER and time  0.3000000E+02

         4  7.872783E-04  4.354506E-05  1.406997E-06
