
 displacements (vx,vy,vz) for set TIPMARKER and time  0.1000000E+00

         4  2.002484E-06  3.463375E-05  1.176077E-08

 displacements (vx,vy,vz) for set TIPMARKER and time  0.2000000E+00

         4  6.236852E-06  1.577642E-04  3.307446E-08

 displacements (vx,vy,vz) for set TIPMARKER and time  0.3000000E+00

         4  1.163345E-05  4.058943E-04  6.936217E-08

 displacements (vx,vy,vz) for set TIPMARKER and time  0.4000000E+00

         4  1.693315E-05  8.127076E-04  1.311701E-07

 displacements (vx,vy,vz) for set TIPMARKER and time  0.5000000E+00

         4  2.102530E-05  1.412944E-03  2.188461E-07

 displacements (vx,vy,vz) for set TIPMARKER and time  0.6000000E+00

         4  2.309081E-05  2.194276E-03  3.285712E-07

 displacements (vx,vy,vz) for set TIPMARKER and time  0.7000000E+00

         4  2.490881E-05  3.062711E-03  4.629653E-07

 displacements (vx,vy,vz) for set TIPMARKER and time  0.8500000E+00

         4  3.124918E-05  4.208005E-03  6.789885E-07

 displacements (vx,vy,vz) for set TIPMARKER and time  0.1000000E+01

         4  3.786009E-05  4.781864E-03  8.302899E-07

 displacements (vx,vy,vz) for set TIPMARKER and time  0.1150000E+01

         4  4.079165E-05  4.405853E-03  8.319773E-07

 displacements (vx,vy,vz) for set TIPMARKER and time  0.1300000E+01

         4  3.764822E-05  3.020800E-03  6.516046E-07

 displacements (vx,vy,vz) for set TIPMARKER and time  0.1450000E+01

         4  3.892394E-05  1.009137E-03  3.504194E-07

 displacements (vx,vy,vz) for set TIPMARKER and time  0.1600000E+01

         4  4.314728E-05 -9.549893E-04  2.036873E-08

 displacements (vx,vy,vz) for set TIPMARKER and time  0.1750000E+01

         4  4.729161E-05 -2.135175E-03 -2.186834E-07

 displacements (vx,vy,vz) for set TIPMARKER and time  0.1900000E+01

         4  4.872517E-05 -2.022322E-03 -2.766564E-07

 displacements (vx,vy,vz) for set TIPMARKER and time  0.2050000E+01

         4  5.305403E-05 -5.970724E-04 -1.037405E-07

 displacements (vx,vy,vz) for set TIPMARKER and time  0.2200000E+01

         4  6.193208E-05  1.654368E-03  2.545537E-07

 displacements (vx,vy,vz) for set TIPMARKER and time  0.2350000E+01

         4  7.099442E-05  3.938434E-03  6.628386E-07

 displacements (vx,vy,vz) for set TIPMARKER and time  0.2500000E+01

         4  7.575751E-05  5.433753E-03  9.689583E-07

 displacements (vx,vy,vz) for set TIPMARKER and time  0.2650000E+01

         4  7.688528E-05  5.634766E-03  1.072387E-06

 displacements (vx,vy,vz) for set TIPMARKER and time  0.2800000E+01

         4  8.098001E-05  4.548843E-03  9.601345E-07

 displacements (vx,vy,vz) for set TIPMARKER and time  0.2950000E+01

         4  8.531277E-05  2.639468E-03  6.809775E-07

 displacements (vx,vy,vz) for set TIPMARKER and time  0.3100000E+01

         4  8.688277E-05  6.322198E-04  3.419774E-07

 displacements (vx,vy,vz) for set TIPMARKER and time  0.3250000E+01

         4  8.389567E-05 -7.855480E-04  5.851237E-08

 displacements (vx,vy,vz) for set TIPMARKER and time  0.3400000E+01

         4  8.640336E-05 -1.243512E-03 -5.760056E-08

 displacements (vx,vy,vz) for set TIPMARKER and time  0.3550000E+01

         4  9.276421E-05 -7.711633E-04  5.722892E-09

 displacements (vx,vy,vz) for set TIPMARKER and time  0.3700000E+01

         4  9.917048E-05  2.872519E-04  1.882844E-07

 displacements (vx,vy,vz) for set TIPMARKER and time  0.3850000E+01

         4  1.019938E-04  1.456901E-03  4.007433E-07

 displacements (vx,vy,vz) for set TIPMARKER and time  0.4000000E+01

         4  1.061101E-04  2.368374E-03  5.829007E-07

 displacements (vx,vy,vz) for set TIPMARKER and time  0.4150000E+01

         4  1.137695E-04  2.885722E-03  6.997160E-07

 displacements (vx,vy,vz) for set TIPMARKER and time  0.4300000E+01

         4  1.211570E-04  3.076877E-03  7.441931E-07

 displacements (vx,vy,vz) for set TIPMARKER and time  0.4450000E+01

         4  1.245309E-04  3.106021E-03  7.362861E-07

 displacements (vx,vy,vz) for set TIPMARKER and time  0.4600000E+01

         4  1.247726E-04  3.080530E-03  7.070298E-07

 displacements (vx,vy,vz) for set TIPMARKER and time  0.4750000E+01

         4  1.288663E-04  2.955780E-03  6.855378E-07

 displacements (vx,vy,vz) for set TIPMARKER and time  0.4900000E+01

         4  1.339135E-04  2.582514E-03  6.483046E-07

 displacements (vx,vy,vz) for set TIPMARKER and time  0.5050000E+01

         4  1.364139E-04  1.834041E-03  5.604905E-07

 displacements (vx,vy,vz) for set TIPMARKER and time  0.5200000E+01

         4  1.340420E-04  7.437663E-04  4.095251E-07

 displacements (vx,vy,vz) for set TIPMARKER and time  0.5350000E+01

         4  1.363998E-04 -4.137574E-04  2.489851E-07

 displacements (vx,vy,vz) for set TIPMARKER and time  0.5500000E+01

         4  1.424809E-04 -1.193026E-03  1.340238E-07

 displacements (vx,vy,vz) for set TIPMARKER and time  0.5650000E+01

         4  1.487910E-04 -1.172068E-03  1.238830E-07

 displacements (vx,vy,vz) for set TIPMARKER and time  0.5800000E+01

         4  1.520183E-04 -1.643836E-04  2.513659E-07

 displacements (vx,vy,vz) for set TIPMARKER and time  0.5950000E+01

         4  1.566762E-04  1.631508E-03  5.147418E-07

 displacements (vx,vy,vz) for set TIPMARKER and time  0.6100000E+01

         4  1.650533E-04  3.647219E-03  8.455963E-07

 displacements (vx,vy,vz) for set TIPMARKER and time  0.6250000E+01

         4  1.729035E-04  5.148973E-03  1.118559E-06

 displacements (vx,vy,vz) for set TIPMARKER and time  0.6400000E+01

         4  1.760694E-04  5.528362E-03  1.215557E-06

 displacements (vx,vy,vz) for set TIPMARKER and time  0.6550000E+01

         4  1.749322E-04  4.566325E-03  1.087219E-06

 displacements (vx,vy,vz) for set TIPMARKER and time  0.6700000E+01

         4  1.772577E-04  2.555875E-03  7.847212E-07

 displacements (vx,vy,vz) for set TIPMARKER and time  0.6850000E+01

         4  1.808727E-04  1.999173E-04  4.060775E-07

 displacements (vx,vy,vz) for set TIPMARKER and time  0.7000000E+01

         4  1.829289E-04 -1.664086E-03  8.407680E-08

 displacements (vx,vy,vz) for set TIPMARKER and time  0.7150000E+01

         4  1.814271E-04 -2.389325E-03 -6.747544E-08

 displacements (vx,vy,vz) for set TIPMARKER and time  0.7300000E+01

         4  1.854506E-04 -1.773838E-03  2.657282E-08

 displacements (vx,vy,vz) for set TIPMARKER and time  0.7450000E+01

         4  1.936931E-04 -1.211431E-04  3.243897E-07

 displacements (vx,vy,vz) for set TIPMARKER and time  0.7600000E+01

         4  2.018289E-04  1.914570E-03  7.042700E-07

 displacements (vx,vy,vz) for set TIPMARKER and time  0.7750000E+01

         4  2.057775E-04  3.605836E-03  1.021280E-06

 displacements (vx,vy,vz) for set TIPMARKER and time  0.7900000E+01

         4  2.094202E-04  4.438757E-03  1.182947E-06

 displacements (vx,vy,vz) for set TIPMARKER and time  0.8050000E+01

         4  2.158132E-04  4.287145E-03  1.160661E-06

 displacements (vx,vy,vz) for set TIPMARKER and time  0.8200000E+01

         4  2.215224E-04  3.395481E-03  9.828138E-07

 displacements (vx,vy,vz) for set TIPMARKER and time  0.8350000E+01

         4  2.232142E-04  2.211413E-03  7.288874E-07

 displacements (vx,vy,vz) for set TIPMARKER and time  0.8500000E+01

         4  2.214766E-04  1.164440E-03  4.962623E-07

 displacements (vx,vy,vz) for set TIPMARKER and time  0.8650000E+01

         4  2.244769E-04  4.890543E-04  3.712394E-07

 displacements (vx,vy,vz) for set TIPMARKER and time  0.8800000E+01

         4  2.296358E-04  1.822747E-04  3.593957E-07

 displacements (vx,vy,vz) for set TIPMARKER and time  0.8950000E+01

         4  2.334062E-04  9.638112E-05  4.197862E-07

 displacements (vx,vy,vz) for set TIPMARKER and time  0.9100000E+01

         4  2.330867E-04  8.715611E-05  4.977326E-07

 displacements (vx,vy,vz) for set TIPMARKER and time  0.9250000E+01

         4  2.371148E-04  1.342352E-04  5.817840E-07

 displacements (vx,vy,vz) for set TIPMARKER and time  0.9400000E+01

         4  2.447531E-04  3.594732E-04  6.619284E-07

 displacements (vx,vy,vz) for set TIPMARKER and time  0.9550000E+01

         4  2.521308E-04  9.243953E-04  7.432722E-07

 displacements (vx,vy,vz) for set TIPMARKER and time  0.9700000E+01

         4  2.556084E-04  1.877562E-03  8.342141E-07

 displacements (vx,vy,vz) for set TIPMARKER and time  0.9850000E+01

         4  2.589551E-04  3.045380E-03  9.425182E-07

 displacements (vx,vy,vz) for set TIPMARKER and time  0.1000000E+02

         4  2.655193E-04  4.036990E-03  1.044145E-06

 displacements (vx,vy,vz) for set TIPMARKER and time  0.1015000E+02

         4  2.715532E-04  4.389703E-03  1.076429E-06

 displacements (vx,vy,vz) for set TIPMARKER and time  0.1030000E+02

         4  2.733459E-04  3.792597E-03  9.859841E-07

 displacements (vx,vy,vz) for set TIPMARKER and time  0.1045000E+02

         4  2.709231E-04  2.274200E-03  7.700945E-07

 displacements (vx,vy,vz) for set TIPMARKER and time  0.1060000E+02

         4  2.729893E-04  2.587036E-04  5.039323E-07

 displacements (vx,vy,vz) for set TIPMARKER and time  0.1075000E+02

         4  2.774813E-04 -1.559137E-03  2.747926E-07

 displacements (vx,vy,vz) for set TIPMARKER and time  0.1090000E+02

         4  2.813191E-04 -2.482819E-03  1.744114E-07

 displacements (vx,vy,vz) for set TIPMARKER and time  0.1105000E+02

         4  2.819798E-04 -2.107008E-03  2.576479E-07

 displacements (vx,vy,vz) for set TIPMARKER and time  0.1120000E+02

         4  2.873695E-04 -5.061532E-04  5.360173E-07

 displacements (vx,vy,vz) for set TIPMARKER and time  0.1135000E+02

         4  2.965654E-04  1.770949E-03  9.206077E-07

 displacements (vx,vy,vz) for set TIPMARKER and time  0.1150000E+02

         4  3.049987E-04  3.910903E-03  1.266709E-06

 displacements (vx,vy,vz) for set TIPMARKER and time  0.1165000E+02

         4  3.084787E-04  5.157227E-03  1.437541E-06

 displacements (vx,vy,vz) for set TIPMARKER and time  0.1180000E+02

         4  3.103173E-04  5.105275E-03  1.376197E-06

 displacements (vx,vy,vz) for set TIPMARKER and time  0.1195000E+02

         4  3.147211E-04  3.849296E-03  1.114791E-06

 displacements (vx,vy,vz) for set TIPMARKER and time  0.1210000E+02

         4  3.188003E-04  1.916105E-03  7.454480E-07

 displacements (vx,vy,vz) for set TIPMARKER and time  0.1225000E+02

         4  3.196279E-04  2.584074E-05  3.992835E-07

 displacements (vx,vy,vz) for set TIPMARKER and time  0.1240000E+02

         4  3.172929E-04 -1.202910E-03  1.980434E-07

 displacements (vx,vy,vz) for set TIPMARKER and time  0.1255000E+02

         4  3.207422E-04 -1.479903E-03  2.228487E-07

 displacements (vx,vy,vz) for set TIPMARKER and time  0.1270000E+02

         4  3.273368E-04 -9.056527E-04  4.397953E-07

 displacements (vx,vy,vz) for set TIPMARKER and time  0.1285000E+02

         4  3.331465E-04  1.423854E-04  7.462106E-07

 displacements (vx,vy,vz) for set TIPMARKER and time  0.1300000E+02

         4  3.348869E-04  1.219679E-03  1.019545E-06

 displacements (vx,vy,vz) for set TIPMARKER and time  0.1315000E+02

         4  3.398271E-04  2.014942E-03  1.191798E-06

 displacements (vx,vy,vz) for set TIPMARKER and time  0.1330000E+02

         4  3.477072E-04  2.448275E-03  1.229515E-06

 displacements (vx,vy,vz) for set TIPMARKER and time  0.1345000E+02

         4  3.546079E-04  2.626273E-03  1.148430E-06

 displacements (vx,vy,vz) for set TIPMARKER and time  0.1360000E+02

         4  3.569834E-04  2.703611E-03  1.001077E-06

 displacements (vx,vy,vz) for set TIPMARKER and time  0.1375000E+02

         4  3.581972E-04  2.743891E-03  8.592757E-07

 displacements (vx,vy,vz) for set TIPMARKER and time  0.1390000E+02

         4  3.628470E-04  2.658874E-03  7.701579E-07

 displacements (vx,vy,vz) for set TIPMARKER and time  0.1405000E+02

         4  3.677178E-04  2.269804E-03  7.236938E-07

 displacements (vx,vy,vz) for set TIPMARKER and time  0.1420000E+02

         4  3.693776E-04  1.455266E-03  6.876888E-07

 displacements (vx,vy,vz) for set TIPMARKER and time  0.1435000E+02

         4  3.671583E-04  2.911965E-04  6.413952E-07

 displacements (vx,vy,vz) for set TIPMARKER and time  0.1450000E+02

         4  3.703124E-04 -9.014719E-04  6.139745E-07

 displacements (vx,vy,vz) for set TIPMARKER and time  0.1465000E+02

         4  3.765417E-04 -1.649276E-03  6.267957E-07

 displacements (vx,vy,vz) for set TIPMARKER and time  0.1480000E+02

         4  3.823109E-04 -1.533831E-03  7.054769E-07

 displacements (vx,vy,vz) for set TIPMARKER and time  0.1495000E+02

         4  3.845493E-04 -4.129140E-04  8.568675E-07

 displacements (vx,vy,vz) for set TIPMARKER and time  0.1510000E+02

         4  3.901258E-04  1.456775E-03  1.073766E-06

 displacements (vx,vy,vz) for set TIPMARKER and time  0.1525000E+02

         4  3.987985E-04  3.466934E-03  1.287233E-06

 displacements (vx,vy,vz) for set TIPMARKER and time  0.1540000E+02

         4  4.061508E-04  4.877561E-03  1.399566E-06

 displacements (vx,vy,vz) for set TIPMARKER and time  0.1555000E+02

         4  4.082390E-04  5.118440E-03  1.336747E-06

 displacements (vx,vy,vz) for set TIPMARKER and time  0.1570000E+02

         4  4.080293E-04  4.037257E-03  1.101783E-06

 displacements (vx,vy,vz) for set TIPMARKER and time  0.1585000E+02

         4  4.109333E-04  1.984939E-03  7.741721E-07

 displacements (vx,vy,vz) for set TIPMARKER and time  0.1600000E+02

         4  4.144793E-04 -3.115387E-04  4.630837E-07

 displacements (vx,vy,vz) for set TIPMARKER and time  0.1615000E+02

         4  4.158607E-04 -2.037362E-03  2.837281E-07

 displacements (vx,vy,vz) for set TIPMARKER and time  0.1630000E+02

         4  4.143021E-04 -2.610199E-03  3.116869E-07

 displacements (vx,vy,vz) for set TIPMARKER and time  0.1645000E+02

         4  4.191577E-04 -1.900393E-03  5.691411E-07

 displacements (vx,vy,vz) for set TIPMARKER and time  0.1660000E+02

         4  4.274850E-04 -2.568214E-04  9.602712E-07

 displacements (vx,vy,vz) for set TIPMARKER and time  0.1675000E+02

         4  4.349027E-04  1.667236E-03  1.335342E-06

 displacements (vx,vy,vz) for set TIPMARKER and time  0.1690000E+02

         4  4.376591E-04  3.195338E-03  1.552183E-06

 displacements (vx,vy,vz) for set TIPMARKER and time  0.1705000E+02

         4  4.421111E-04  3.890935E-03  1.554720E-06

 displacements (vx,vy,vz) for set TIPMARKER and time  0.1720000E+02

         4  4.488402E-04  3.692470E-03  1.356021E-06

 displacements (vx,vy,vz) for set TIPMARKER and time  0.1735000E+02

         4  4.542390E-04  2.867991E-03  1.035328E-06

 displacements (vx,vy,vz) for set TIPMARKER and time  0.1750000E+02

         4  4.551220E-04  1.836140E-03  7.104456E-07

 displacements (vx,vy,vz) for set TIPMARKER and time  0.1765000E+02

         4  4.545385E-04  9.565547E-04  5.007863E-07

 displacements (vx,vy,vz) for set TIPMARKER and time  0.1780000E+02

         4  4.582352E-04  3.880014E-04  4.754484E-07

 displacements (vx,vy,vz) for set TIPMARKER and time  0.1795000E+02

         4  4.632817E-04  8.110098E-05  6.081467E-07

 displacements (vx,vy,vz) for set TIPMARKER and time  0.1810000E+02

         4  4.661821E-04 -1.093954E-04  8.178671E-07

 displacements (vx,vy,vz) for set TIPMARKER and time  0.1825000E+02

         4  4.652189E-04 -2.772822E-04  1.014005E-06

 displacements (vx,vy,vz) for set TIPMARKER and time  0.1840000E+02

         4  4.699060E-04 -3.695227E-04  1.159788E-06

 displacements (vx,vy,vz) for set TIPMARKER and time  0.1855000E+02

         4  4.776006E-04 -2.040806E-04  1.228183E-06

 displacements (vx,vy,vz) for set TIPMARKER and time  0.1870000E+02

         4  4.843884E-04  4.012622E-04  1.229263E-06

 displacements (vx,vy,vz) for set TIPMARKER and time  0.1885000E+02

         4  4.868919E-04  1.468740E-03  1.191504E-06

 displacements (vx,vy,vz) for set TIPMARKER and time  0.1900000E+02

         4  4.912682E-04  2.766215E-03  1.158836E-06

 displacements (vx,vy,vz) for set TIPMARKER and time  0.1915000E+02

         4  4.983113E-04  3.842998E-03  1.133722E-06

 displacements (vx,vy,vz) for set TIPMARKER and time  0.1930000E+02

         4  5.040451E-04  4.204098E-03  1.084095E-06

 displacements (vx,vy,vz) for set TIPMARKER and time  0.1945000E+02

         4  5.049124E-04  3.547238E-03  9.794234E-07

 displacements (vx,vy,vz) for set TIPMARKER and time  0.1960000E+02

         4  5.034793E-04  1.943246E-03  8.307921E-07

 displacements (vx,vy,vz) for set TIPMARKER and time  0.1975000E+02

         4  5.061376E-04 -1.323487E-04  6.944237E-07

 displacements (vx,vy,vz) for set TIPMARKER and time  0.1990000E+02

         4  5.105122E-04 -1.952899E-03  6.263791E-07

 displacements (vx,vy,vz) for set TIPMARKER and time  0.2005000E+02

         4  5.135679E-04 -2.825832E-03  6.756434E-07

 displacements (vx,vy,vz) for set TIPMARKER and time  0.2020000E+02

         4  5.133769E-04 -2.382341E-03  8.546742E-07

 displacements (vx,vy,vz) for set TIPMARKER and time  0.2035000E+02

         4  5.195330E-04 -7.452586E-04  1.147805E-06

 displacements (vx,vy,vz) for set TIPMARKER and time  0.2050000E+02

         4  5.288221E-04  1.505015E-03  1.451008E-06

 displacements (vx,vy,vz) for set TIPMARKER and time  0.2065000E+02

         4  5.366154E-04  3.560056E-03  1.638920E-06

 displacements (vx,vy,vz) for set TIPMARKER and time  0.2080000E+02

         4  5.390164E-04  4.704798E-03  1.619413E-06

 displacements (vx,vy,vz) for set TIPMARKER and time  0.2095000E+02

         4  5.418108E-04  4.593029E-03  1.397381E-06

 displacements (vx,vy,vz) for set TIPMARKER and time  0.2110000E+02

         4  5.467176E-04  3.363483E-03  1.047411E-06

 displacements (vx,vy,vz) for set TIPMARKER and time  0.2125000E+02

         4  5.506168E-04  1.547505E-03  6.890892E-07

 displacements (vx,vy,vz) for set TIPMARKER and time  0.2140000E+02

         4  5.506841E-04 -1.765539E-04  4.506073E-07

 displacements (vx,vy,vz) for set TIPMARKER and time  0.2155000E+02

         4  5.494708E-04 -1.262021E-03  4.271724E-07

 displacements (vx,vy,vz) for set TIPMARKER and time  0.2170000E+02

         4  5.535591E-04 -1.487981E-03  6.406702E-07

 displacements (vx,vy,vz) for set TIPMARKER and time  0.2185000E+02

         4  5.599599E-04 -9.873718E-04  1.000987E-06

 displacements (vx,vy,vz) for set TIPMARKER and time  0.2200000E+02

         4  5.648126E-04 -1.157275E-04  1.365175E-06

 displacements (vx,vy,vz) for set TIPMARKER and time  0.2215000E+02

         4  5.652539E-04  7.514252E-04  1.597886E-06

 displacements (vx,vy,vz) for set TIPMARKER and time  0.2230000E+02

         4  5.708576E-04  1.390301E-03  1.652021E-06

 displacements (vx,vy,vz) for set TIPMARKER and time  0.2245000E+02

         4  5.788839E-04  1.787556E-03  1.524454E-06

 displacements (vx,vy,vz) for set TIPMARKER and time  0.2260000E+02

         4  5.853359E-04  2.065401E-03  1.278139E-06

 displacements (vx,vy,vz) for set TIPMARKER and time  0.2275000E+02

         4  5.868823E-04  2.337032E-03  1.009357E-06

 displacements (vx,vy,vz) for set TIPMARKER and time  0.2290000E+02

         4  5.892706E-04  2.586074E-03  8.245315E-07

 displacements (vx,vy,vz) for set TIPMARKER and time  0.2305000E+02

         4  5.945269E-04  2.641638E-03  7.711202E-07

 displacements (vx,vy,vz) for set TIPMARKER and time  0.2320000E+02

         4  5.991588E-04  2.275664E-03  8.256226E-07

 displacements (vx,vy,vz) for set TIPMARKER and time  0.2335000E+02

         4  5.998632E-04  1.369790E-03  9.287316E-07

 displacements (vx,vy,vz) for set TIPMARKER and time  0.2350000E+02

         4  5.985271E-04  4.994634E-05  1.031761E-06

 displacements (vx,vy,vz) for set TIPMARKER and time  0.2365000E+02

         4  6.021687E-04 -1.292082E-03  1.122579E-06

 displacements (vx,vy,vz) for set TIPMARKER and time  0.2380000E+02

         4  6.081969E-04 -2.125008E-03  1.194238E-06

 displacements (vx,vy,vz) for set TIPMARKER and time  0.2395000E+02

         4  6.131385E-04 -2.010027E-03  1.257542E-06

 displacements (vx,vy,vz) for set TIPMARKER and time  0.2410000E+02

         4  6.142768E-04 -8.260156E-04  1.321289E-06

 displacements (vx,vy,vz) for set TIPMARKER and time  0.2425000E+02

         4  6.207164E-04  1.123604E-03  1.402432E-06

 displacements (vx,vy,vz) for set TIPMARKER and time  0.2440000E+02

         4  6.296506E-04  3.186176E-03  1.457483E-06

 displacements (vx,vy,vz) for set TIPMARKER and time  0.2455000E+02

         4  6.365478E-04  4.603560E-03  1.429197E-06

 displacements (vx,vy,vz) for set TIPMARKER and time  0.2470000E+02

         4  6.376962E-04  4.820617E-03  1.283476E-06

 displacements (vx,vy,vz) for set TIPMARKER and time  0.2485000E+02

         4  6.385306E-04  3.721572E-03  1.056240E-06

 displacements (vx,vy,vz) for set TIPMARKER and time  0.2500000E+02

         4  6.419751E-04  1.690819E-03  8.238499E-07

 displacements (vx,vy,vz) for set TIPMARKER and time  0.2515000E+02

         4  6.453103E-04 -5.374688E-04  6.729395E-07

 displacements (vx,vy,vz) for set TIPMARKER and time  0.2530000E+02

         4  6.458306E-04 -2.175677E-03  6.753301E-07

 displacements (vx,vy,vz) for set TIPMARKER and time  0.2545000E+02

         4  6.452588E-04 -2.691381E-03  8.599241E-07

 displacements (vx,vy,vz) for set TIPMARKER and time  0.2560000E+02

         4  6.506691E-04 -2.001179E-03  1.195405E-06

 displacements (vx,vy,vz) for set TIPMARKER and time  0.2575000E+02

         4  6.587821E-04 -4.685303E-04  1.559767E-06

 displacements (vx,vy,vz) for set TIPMARKER and time  0.2590000E+02

         4  6.652804E-04  1.283835E-03  1.809160E-06

 displacements (vx,vy,vz) for set TIPMARKER and time  0.2605000E+02

         4  6.668148E-04  2.646419E-03  1.838444E-06

 displacements (vx,vy,vz) for set TIPMARKER and time  0.2620000E+02

         4  6.720798E-04  3.258306E-03  1.652765E-06

 displacements (vx,vy,vz) for set TIPMARKER and time  0.2635000E+02

         4  6.791394E-04  3.106131E-03  1.314899E-06

 displacements (vx,vy,vz) for set TIPMARKER and time  0.2650000E+02

         4  6.842514E-04  2.453107E-03  9.444838E-07

 displacements (vx,vy,vz) for set TIPMARKER and time  0.2665000E+02

         4  6.843921E-04  1.658408E-03  6.719608E-07

 displacements (vx,vy,vz) for set TIPMARKER and time  0.2680000E+02

         4  6.850020E-04  9.904356E-04  6.043112E-07

 displacements (vx,vy,vz) for set TIPMARKER and time  0.2695000E+02

         4  6.892767E-04  5.235867E-04  7.606067E-07

 displacements (vx,vy,vz) for set TIPMARKER and time  0.2710000E+02

         4  6.940054E-04  1.677973E-04  1.061151E-06

 displacements (vx,vy,vz) for set TIPMARKER and time  0.2725000E+02

         4  6.958294E-04 -2.015963E-04  1.379335E-06

 displacements (vx,vy,vz) for set TIPMARKER and time  0.2740000E+02

         4  6.956243E-04 -6.059375E-04  1.604761E-06

 displacements (vx,vy,vz) for set TIPMARKER and time  0.2755000E+02

         4  7.007527E-04 -8.995072E-04  1.692146E-06

 displacements (vx,vy,vz) for set TIPMARKER and time  0.2770000E+02

         4  7.082853E-04 -8.271176E-04  1.634361E-06

 displacements (vx,vy,vz) for set TIPMARKER and time  0.2785000E+02

         4  7.143495E-04 -1.821449E-04  1.477281E-06

 displacements (vx,vy,vz) for set TIPMARKER and time  0.2800000E+02

         4  7.158880E-04  1.027277E-03  1.290469E-06

 displacements (vx,vy,vz) for set TIPMARKER and time  0.2815000E+02

         4  7.213090E-04  2.501724E-03  1.159084E-06

 displacements (vx,vy,vz) for set TIPMARKER and time  0.2830000E+02

         4  7.287974E-04  3.719499E-03  1.101049E-06

 displacements (vx,vy,vz) for set TIPMARKER and time  0.2845000E+02

         4  7.342007E-04  4.142268E-03  1.090491E-06

 displacements (vx,vy,vz) for set TIPMARKER and time  0.2860000E+02

         4  7.341506E-04  3.466722E-03  1.087734E-06

 displacements (vx,vy,vz) for set TIPMARKER and time  0.2875000E+02

         4  7.337009E-04  1.797667E-03  1.086435E-06

 displacements (vx,vy,vz) for set TIPMARKER and time  0.2897500E+02

         4  7.398831E-04 -1.198069E-03  1.132239E-06

 displacements (vx,vy,vz) for set TIPMARKER and time  0.2920000E+02

         4  7.423206E-04 -2.935934E-03  1.258609E-06

 displacements (vx,vy,vz) for set TIPMARKER and time  0.2942500E+02

         4  7.468160E-04 -2.229325E-03  1.479234E-06

 displacements (vx,vy,vz) for set TIPMARKER and time  0.2965000E+02

         4  7.593197E-04  2.596759E-04  1.651728E-06

 displacements (vx,vy,vz) for set TIPMARKER and time  0.2987500E+02

         4  7.660026E-04  2.615174E-03  1.567594E-06

 displacements (vx,vy,vz) for set TIPMARKER and time  0.3000000E+02

         4  7.671789E-04  3.218039E-03  1.385934E-06
