
 displacements (vx,vy,vz) for set TIPMARKER and time  0.1000000E+00

         4  3.820075E-06  5.850789E-05  2.041687E-08

 displacements (vx,vy,vz) for set TIPMARKER and time  0.1250000E+00

         4  4.254544E-06  8.778329E-05  2.150127E-08

 displacements (vx,vy,vz) for set TIPMARKER and time  0.1500000E+00

         4  4.418935E-06  1.158946E-04  1.944835E-08

 displacements (vx,vy,vz) for set TIPMARKER and time  0.1875000E+00

         4  5.787996E-06  1.453669E-04  1.765097E-08

 displacements (vx,vy,vz) for set TIPMARKER and time  0.2250000E+00

         4  7.092456E-06  1.541382E-04  2.320088E-08

 displacements (vx,vy,vz) for set TIPMARKER and time  0.2625000E+00

         4  7.384442E-06  1.472295E-04  3.702799E-08

 displacements (vx,vy,vz) for set TIPMARKER and time  0.3000000E+00

         4  7.824174E-06  1.464773E-04  5.655062E-08

 displacements (vx,vy,vz) for set TIPMARKER and time  0.3562500E+00

         4  1.071090E-05  2.231651E-04  8.344260E-08

 displacements (vx,vy,vz) for set TIPMARKER and time  0.4125000E+00

         4  1.150811E-05  3.733840E-04  7.947526E-08

 displacements (vx,vy,vz) for set TIPMARKER and time  0.4687500E+00

         4  1.379785E-05  4.739613E-04  7.254776E-08

 displacements (vx,vy,vz) for set TIPMARKER and time  0.5250000E+00

         4  1.496963E-05  4.551229E-04  9.148998E-08

 displacements (vx,vy,vz) for set TIPMARKER and time  0.5812500E+00

         4  1.544128E-05  4.012444E-04  1.338954E-07

 displacements (vx,vy,vz) for set TIPMARKER and time  0.6375000E+00

         4  1.823608E-05  4.536266E-04  1.632872E-07

 displacements (vx,vy,vz) for set TIPMARKER and time  0.6937500E+00

         4  1.917831E-05  6.215224E-04  1.455985E-07

 displacements (vx,vy,vz) for set TIPMARKER and time  0.7500000E+00

         4  2.170418E-05  7.284362E-04  1.243757E-07

 displacements (vx,vy,vz) for set TIPMARKER and time  0.8062500E+00

         4  2.262227E-05  6.430253E-04  1.374535E-07

 displacements (vx,vy,vz) for set TIPMARKER and time  0.8625000E+00

         4  2.275480E-05  4.839117E-04  1.822490E-07

 displacements (vx,vy,vz) for set TIPMARKER and time  0.9187500E+00

         4  2.537206E-05  4.681142E-04  2.085962E-07

 displacements (vx,vy,vz) for set TIPMARKER and time  0.9750000E+00

         4  2.639095E-05  6.170888E-04  1.727921E-07

 displacements (vx,vy,vz) for set TIPMARKER and time  0.1031250E+01

         4  2.907265E-05  7.083476E-04  1.306472E-07

 displacements (vx,vy,vz) for set TIPMARKER and time  0.1087500E+01

         4  2.983778E-05  5.593672E-04  1.340114E-07

 displacements (vx,vy,vz) for set TIPMARKER and time  0.1143750E+01

         4  2.961882E-05  2.988811E-04  1.786619E-07

 displacements (vx,vy,vz) for set TIPMARKER and time  0.1200000E+01

         4  3.204097E-05  2.170047E-04  2.027662E-07

 displacements (vx,vy,vz) for set TIPMARKER and time  0.1256250E+01

         4  3.312563E-05  3.645224E-04  1.545666E-07

 displacements (vx,vy,vz) for set TIPMARKER and time  0.1312500E+01

         4  3.604315E-05  4.716680E-04  9.580805E-08

 displacements (vx,vy,vz) for set TIPMARKER and time  0.1368750E+01

         4  3.671887E-05  3.059881E-04  9.357186E-08

 displacements (vx,vy,vz) for set TIPMARKER and time  0.1425000E+01

         4  3.631679E-05 -1.368333E-06  1.452783E-07

 displacements (vx,vy,vz) for set TIPMARKER and time  0.1481250E+01

         4  3.854538E-05 -1.047968E-04  1.761590E-07

 displacements (vx,vy,vz) for set TIPMARKER and time  0.1537500E+01

         4  3.976069E-05  8.653359E-05  1.266424E-07

 displacements (vx,vy,vz) for set TIPMARKER and time  0.1593750E+01

         4  4.299280E-05  2.664173E-04  6.259448E-08

 displacements (vx,vy,vz) for set TIPMARKER and time  0.1650000E+01

         4  4.372130E-05  1.434013E-04  6.270269E-08

 displacements (vx,vy,vz) for set TIPMARKER and time  0.1706250E+01

         4  4.322515E-05 -1.549258E-04  1.295409E-07

 displacements (vx,vy,vz) for set TIPMARKER and time  0.1762500E+01

         4  4.535222E-05 -2.375196E-04  1.769102E-07

 displacements (vx,vy,vz) for set TIPMARKER and time  0.1818750E+01

         4  4.666804E-05  2.452263E-05  1.347914E-07

 displacements (vx,vy,vz) for set TIPMARKER and time  0.1875000E+01

         4  5.027529E-05  3.038935E-04  7.268884E-08

 displacements (vx,vy,vz) for set TIPMARKER and time  0.1931250E+01

         4  5.111550E-05  2.496561E-04  7.885143E-08

 displacements (vx,vy,vz) for set TIPMARKER and time  0.1987500E+01

         4  5.057841E-05 -2.684982E-05  1.614059E-07

 displacements (vx,vy,vz) for set TIPMARKER and time  0.2071875E+01

         4  5.264669E-05 -2.205297E-05  2.243879E-07

 displacements (vx,vy,vz) for set TIPMARKER and time  0.2156250E+01

         4  5.816760E-05  4.376930E-04  1.521237E-07

 displacements (vx,vy,vz) for set TIPMARKER and time  0.2240625E+01

         4  5.801056E-05  5.195120E-04  1.397405E-07

 displacements (vx,vy,vz) for set TIPMARKER and time  0.2325000E+01

         4  5.979974E-05  2.106421E-04  2.541212E-07

 displacements (vx,vy,vz) for set TIPMARKER and time  0.2409375E+01

         4  6.170931E-05  2.696549E-04  2.677363E-07

 displacements (vx,vy,vz) for set TIPMARKER and time  0.2493750E+01

         4  6.547186E-05  6.147531E-04  1.944649E-07

 displacements (vx,vy,vz) for set TIPMARKER and time  0.2578125E+01

         4  6.898871E-05  5.554592E-04  2.181209E-07

 displacements (vx,vy,vz) for set TIPMARKER and time  0.2662500E+01

         4  6.666692E-05  2.337321E-04  2.754906E-07

 displacements (vx,vy,vz) for set TIPMARKER and time  0.2746875E+01

         4  7.024770E-05  2.531922E-04  2.579015E-07

 displacements (vx,vy,vz) for set TIPMARKER and time  0.2831250E+01

         4  7.376358E-05  4.481694E-04  2.056072E-07

 displacements (vx,vy,vz) for set TIPMARKER and time  0.2915625E+01

         4  7.539569E-05  3.091569E-04  2.104961E-07

 displacements (vx,vy,vz) for set TIPMARKER and time  0.3000000E+01

         4  7.709995E-05  9.944591E-07  2.391908E-07

 displacements (vx,vy,vz) for set TIPMARKER and time  0.3084375E+01

         4  7.691921E-05 -1.115285E-05  2.200313E-07

 displacements (vx,vy,vz) for set TIPMARKER and time  0.3168750E+01

         4  8.185516E-05  1.498555E-04  1.851503E-07

 displacements (vx,vy,vz) for set TIPMARKER and time  0.3253125E+01

         4  8.335589E-05  4.473469E-05  1.706366E-07

 displacements (vx,vy,vz) for set TIPMARKER and time  0.3337500E+01

         4  8.360019E-05 -2.077195E-04  2.060214E-07

 displacements (vx,vy,vz) for set TIPMARKER and time  0.3421875E+01

         4  8.787374E-05 -1.503807E-04  2.269112E-07

 displacements (vx,vy,vz) for set TIPMARKER and time  0.3506250E+01

         4  8.884444E-05  9.062280E-05  1.753037E-07

 displacements (vx,vy,vz) for set TIPMARKER and time  0.3590625E+01

         4  9.158602E-05  4.433319E-05  1.789059E-07

 displacements (vx,vy,vz) for set TIPMARKER and time  0.3675000E+01

         4  9.270526E-05 -1.278435E-04  2.554481E-07

 displacements (vx,vy,vz) for set TIPMARKER and time  0.3759375E+01

         4  9.533174E-05  4.627135E-05  2.678022E-07

 displacements (vx,vy,vz) for set TIPMARKER and time  0.3843750E+01

         4  9.997714E-05  3.323546E-04  2.224479E-07

 displacements (vx,vy,vz) for set TIPMARKER and time  0.3928125E+01

         4  9.914932E-05  2.689647E-04  2.553265E-07

 displacements (vx,vy,vz) for set TIPMARKER and time  0.4012500E+01

         4  1.018034E-04  1.500631E-04  3.390763E-07

 displacements (vx,vy,vz) for set TIPMARKER and time  0.4096875E+01

         4  1.049085E-04  3.640357E-04  3.172063E-07

 displacements (vx,vy,vz) for set TIPMARKER and time  0.4181250E+01

         4  1.072716E-04  5.547407E-04  2.798024E-07

 displacements (vx,vy,vz) for set TIPMARKER and time  0.4265625E+01

         4  1.102862E-04  4.087303E-04  3.402132E-07

 displacements (vx,vy,vz) for set TIPMARKER and time  0.4350000E+01

         4  1.094973E-04  2.918574E-04  3.673652E-07

 displacements (vx,vy,vz) for set TIPMARKER and time  0.4434375E+01

         4  1.134342E-04  4.264167E-04  3.245084E-07

 displacements (vx,vy,vz) for set TIPMARKER and time  0.4518750E+01

         4  1.164358E-04  4.660325E-04  3.108147E-07

 displacements (vx,vy,vz) for set TIPMARKER and time  0.4603125E+01

         4  1.171288E-04  2.652867E-04  3.382615E-07

 displacements (vx,vy,vz) for set TIPMARKER and time  0.4687500E+01

         4  1.199707E-04  1.301237E-04  3.339352E-07

 displacements (vx,vy,vz) for set TIPMARKER and time  0.4771875E+01

         4  1.206801E-04  1.751921E-04  2.975903E-07

 displacements (vx,vy,vz) for set TIPMARKER and time  0.4856250E+01

         4  1.244436E-04  1.632131E-04  2.913107E-07

 displacements (vx,vy,vz) for set TIPMARKER and time  0.4940625E+01

         4  1.259834E-04 -5.562687E-06  2.906491E-07

 displacements (vx,vy,vz) for set TIPMARKER and time  0.5025000E+01

         4  1.267081E-04 -1.235590E-04  2.914709E-07

 displacements (vx,vy,vz) for set TIPMARKER and time  0.5109375E+01

         4  1.312304E-04 -5.629101E-05  2.939482E-07

 displacements (vx,vy,vz) for set TIPMARKER and time  0.5193750E+01

         4  1.317954E-04  7.567473E-06  2.682001E-07

 displacements (vx,vy,vz) for set TIPMARKER and time  0.5278125E+01

         4  1.341012E-04 -9.004126E-05  2.800758E-07

 displacements (vx,vy,vz) for set TIPMARKER and time  0.5362500E+01

         4  1.364888E-04 -1.367801E-04  3.250285E-07

 displacements (vx,vy,vz) for set TIPMARKER and time  0.5446875E+01

         4  1.386516E-04  3.718059E-05  3.211445E-07

 displacements (vx,vy,vz) for set TIPMARKER and time  0.5531250E+01

         4  1.425405E-04  1.701383E-04  3.038575E-07

 displacements (vx,vy,vz) for set TIPMARKER and time  0.5615625E+01

         4  1.422334E-04  1.003831E-04  3.471696E-07

 displacements (vx,vy,vz) for set TIPMARKER and time  0.5700000E+01

         4  1.454630E-04  1.263177E-04  3.996558E-07

 displacements (vx,vy,vz) for set TIPMARKER and time  0.5784375E+01

         4  1.488864E-04  3.473582E-04  3.739014E-07

 displacements (vx,vy,vz) for set TIPMARKER and time  0.5868750E+01

         4  1.500716E-04  4.251564E-04  3.688073E-07

 displacements (vx,vy,vz) for set TIPMARKER and time  0.5953125E+01

         4  1.532898E-04  3.206089E-04  4.346227E-07

 displacements (vx,vy,vz) for set TIPMARKER and time  0.6037500E+01

         4  1.537795E-04  3.554212E-04  4.364473E-07

 displacements (vx,vy,vz) for set TIPMARKER and time  0.6121875E+01

         4  1.573453E-04  4.893485E-04  3.980569E-07

 displacements (vx,vy,vz) for set TIPMARKER and time  0.6206250E+01

         4  1.601124E-04  4.381341E-04  4.163176E-07

 displacements (vx,vy,vz) for set TIPMARKER and time  0.6290625E+01

         4  1.605090E-04  2.927395E-04  4.398243E-07

 displacements (vx,vy,vz) for set TIPMARKER and time  0.6375000E+01

         4  1.640482E-04  2.764307E-04  4.124843E-07

 displacements (vx,vy,vz) for set TIPMARKER and time  0.6459375E+01

         4  1.650882E-04  2.880975E-04  3.850128E-07

 displacements (vx,vy,vz) for set TIPMARKER and time  0.6543750E+01

         4  1.680024E-04  1.798664E-04  3.984514E-07

 displacements (vx,vy,vz) for set TIPMARKER and time  0.6628125E+01

         4  1.700998E-04  4.491258E-05  3.896629E-07

 displacements (vx,vy,vz) for set TIPMARKER and time  0.6712500E+01

         4  1.708497E-04 -2.833732E-06  3.679736E-07

 displacements (vx,vy,vz) for set TIPMARKER and time  0.6796875E+01

         4  1.751106E-04 -2.114765E-06  3.736995E-07

 displacements (vx,vy,vz) for set TIPMARKER and time  0.6881250E+01

         4  1.756533E-04 -4.342725E-05  3.621612E-07

 displacements (vx,vy,vz) for set TIPMARKER and time  0.6965625E+01

         4  1.779093E-04 -1.225551E-04  3.632541E-07

 displacements (vx,vy,vz) for set TIPMARKER and time  0.7050000E+01

         4  1.810560E-04 -1.216079E-04  3.888035E-07

 displacements (vx,vy,vz) for set TIPMARKER and time  0.7134375E+01

         4  1.823586E-04 -1.848714E-05  3.855488E-07

 displacements (vx,vy,vz) for set TIPMARKER and time  0.7218750E+01

         4  1.858309E-04  2.649090E-05  3.824549E-07

 displacements (vx,vy,vz) for set TIPMARKER and time  0.7303125E+01

         4  1.863526E-04 -4.217205E-06  4.193300E-07

 displacements (vx,vy,vz) for set TIPMARKER and time  0.7387500E+01

         4  1.896312E-04  8.290302E-05  4.531196E-07

 displacements (vx,vy,vz) for set TIPMARKER and time  0.7471875E+01

         4  1.930445E-04  2.540363E-04  4.368808E-07

 displacements (vx,vy,vz) for set TIPMARKER and time  0.7556250E+01

         4  1.934331E-04  2.850229E-04  4.490328E-07

 displacements (vx,vy,vz) for set TIPMARKER and time  0.7640625E+01

         4  1.970255E-04  2.571664E-04  5.068092E-07

 displacements (vx,vy,vz) for set TIPMARKER and time  0.7725000E+01

         4  1.983313E-04  3.674493E-04  4.975440E-07

 displacements (vx,vy,vz) for set TIPMARKER and time  0.7809375E+01

         4  2.012892E-04  4.676593E-04  4.745613E-07

 displacements (vx,vy,vz) for set TIPMARKER and time  0.7893750E+01

         4  2.041844E-04  4.008545E-04  5.100490E-07

 displacements (vx,vy,vz) for set TIPMARKER and time  0.7978125E+01

         4  2.044310E-04  3.428523E-04  5.207783E-07

 displacements (vx,vy,vz) for set TIPMARKER and time  0.8062500E+01

         4  2.081979E-04  3.829780E-04  4.861283E-07

 displacements (vx,vy,vz) for set TIPMARKER and time  0.8146875E+01

         4  2.094531E-04  3.505135E-04  4.760233E-07

 displacements (vx,vy,vz) for set TIPMARKER and time  0.8231250E+01

         4  2.118678E-04  2.243276E-04  4.953926E-07

 displacements (vx,vy,vz) for set TIPMARKER and time  0.8315625E+01

         4  2.145792E-04  1.473531E-04  4.735161E-07

 displacements (vx,vy,vz) for set TIPMARKER and time  0.8400000E+01

         4  2.149576E-04  1.130733E-04  4.445782E-07

 displacements (vx,vy,vz) for set TIPMARKER and time  0.8484375E+01

         4  2.188487E-04  4.540141E-05  4.587934E-07

 displacements (vx,vy,vz) for set TIPMARKER and time  0.8568750E+01

         4  2.197210E-04 -3.384609E-05  4.482856E-07

 displacements (vx,vy,vz) for set TIPMARKER and time  0.8653125E+01

         4  2.219089E-04 -8.828728E-05  4.354053E-07

 displacements (vx,vy,vz) for set TIPMARKER and time  0.8737500E+01

         4  2.254008E-04 -1.005231E-04  4.545918E-07

 displacements (vx,vy,vz) for set TIPMARKER and time  0.8821875E+01

         4  2.258145E-04 -7.285927E-05  4.540871E-07

 displacements (vx,vy,vz) for set TIPMARKER and time  0.8906250E+01

         4  2.291276E-04 -6.570905E-05  4.519132E-07

 displacements (vx,vy,vz) for set TIPMARKER and time  0.8990625E+01

         4  2.304231E-04 -6.931199E-05  4.799303E-07

 displacements (vx,vy,vz) for set TIPMARKER and time  0.9075000E+01

         4  2.333584E-04  1.507964E-05  5.061979E-07

 displacements (vx,vy,vz) for set TIPMARKER and time  0.9159375E+01

         4  2.367332E-04  1.325347E-04  4.993282E-07

 displacements (vx,vy,vz) for set TIPMARKER and time  0.9243750E+01

         4  2.365901E-04  1.579279E-04  5.159950E-07

 displacements (vx,vy,vz) for set TIPMARKER and time  0.9328125E+01

         4  2.404150E-04  1.885702E-04  5.647972E-07

 displacements (vx,vy,vz) for set TIPMARKER and time  0.9412500E+01

         4  2.422198E-04  3.196346E-04  5.553588E-07

 displacements (vx,vy,vz) for set TIPMARKER and time  0.9496875E+01

         4  2.445903E-04  3.950306E-04  5.465359E-07

 displacements (vx,vy,vz) for set TIPMARKER and time  0.9581250E+01

         4  2.478155E-04  3.570567E-04  5.880758E-07

 displacements (vx,vy,vz) for set TIPMARKER and time  0.9665625E+01

         4  2.478086E-04  3.732683E-04  5.880862E-07

 displacements (vx,vy,vz) for set TIPMARKER and time  0.9750000E+01

         4  2.515028E-04  4.330909E-04  5.570087E-07

 displacements (vx,vy,vz) for set TIPMARKER and time  0.9834375E+01

         4  2.530624E-04  3.818985E-04  5.623208E-07

 displacements (vx,vy,vz) for set TIPMARKER and time  0.9918750E+01

         4  2.551635E-04  2.855554E-04  5.787323E-07

 displacements (vx,vy,vz) for set TIPMARKER and time  0.1004531E+02

         4  2.594460E-04  2.162528E-04  5.358720E-07

 displacements (vx,vy,vz) for set TIPMARKER and time  0.1017187E+02

         4  2.653335E-04  1.620722E-04  5.406366E-07

 displacements (vx,vy,vz) for set TIPMARKER and time  0.1029844E+02

         4  2.698143E-04 -2.497374E-05  5.299969E-07

 displacements (vx,vy,vz) for set TIPMARKER and time  0.1042500E+02

         4  2.753517E-04 -5.616161E-05  5.449244E-07

 displacements (vx,vy,vz) for set TIPMARKER and time  0.1055156E+02

         4  2.794672E-04 -4.505256E-05  5.294975E-07

 displacements (vx,vy,vz) for set TIPMARKER and time  0.1067812E+02

         4  2.819025E-04 -9.910268E-05  5.628769E-07

 displacements (vx,vy,vz) for set TIPMARKER and time  0.1080469E+02

         4  2.831341E-04 -1.319895E-05  5.772597E-07

 displacements (vx,vy,vz) for set TIPMARKER and time  0.1093125E+02

         4  2.825764E-04  9.861559E-05  5.763070E-07

 displacements (vx,vy,vz) for set TIPMARKER and time  0.1112109E+02

         4  2.885147E-04 -5.805362E-05  6.039223E-07

 displacements (vx,vy,vz) for set TIPMARKER and time  0.1131094E+02

         4  2.953457E-04 -2.512852E-04  5.908373E-07

 displacements (vx,vy,vz) for set TIPMARKER and time  0.1150078E+02

         4  2.962883E-04 -4.075561E-04  5.014472E-07

 displacements (vx,vy,vz) for set TIPMARKER and time  0.1169062E+02

         4  3.018811E-04 -8.362173E-04  4.836619E-07

 displacements (vx,vy,vz) for set TIPMARKER and time  0.1188047E+02

         4  3.078506E-04 -8.862169E-04  4.648360E-07

 displacements (vx,vy,vz) for set TIPMARKER and time  0.1207031E+02

         4  3.113205E-04 -6.781492E-04  4.441492E-07

 displacements (vx,vy,vz) for set TIPMARKER and time  0.1226016E+02

         4  3.179170E-04 -6.631113E-04  5.287772E-07

 displacements (vx,vy,vz) for set TIPMARKER and time  0.1245000E+02

         4  3.229062E-04 -3.073532E-04  5.951215E-07

 displacements (vx,vy,vz) for set TIPMARKER and time  0.1263984E+02

         4  3.284393E-04  4.863563E-05  6.253738E-07

 displacements (vx,vy,vz) for set TIPMARKER and time  0.1282969E+02

         4  3.348640E-04 -5.271132E-05  6.965520E-07

 displacements (vx,vy,vz) for set TIPMARKER and time  0.1301953E+02

         4  3.372611E-04 -8.566866E-05  6.752366E-07

 displacements (vx,vy,vz) for set TIPMARKER and time  0.1320937E+02

         4  3.436568E-04 -1.922429E-04  6.197294E-07

 displacements (vx,vy,vz) for set TIPMARKER and time  0.1339922E+02

         4  3.492226E-04 -6.383501E-04  5.943988E-07

 displacements (vx,vy,vz) for set TIPMARKER and time  0.1358906E+02

         4  3.492520E-04 -8.210449E-04  5.381984E-07

 displacements (vx,vy,vz) for set TIPMARKER and time  0.1377891E+02

         4  3.572177E-04 -7.709024E-04  5.208181E-07

 displacements (vx,vy,vz) for set TIPMARKER and time  0.1396875E+02

         4  3.629248E-04 -7.876711E-04  5.675060E-07

 displacements (vx,vy,vz) for set TIPMARKER and time  0.1415859E+02

         4  3.626290E-04 -5.516057E-04  6.161452E-07

 displacements (vx,vy,vz) for set TIPMARKER and time  0.1434844E+02

         4  3.721409E-04 -1.515474E-04  6.775170E-07

 displacements (vx,vy,vz) for set TIPMARKER and time  0.1453828E+02

         4  3.772681E-04 -2.834566E-05  7.348535E-07

 displacements (vx,vy,vz) for set TIPMARKER and time  0.1472812E+02

         4  3.780415E-04 -3.371748E-05  7.489934E-07

 displacements (vx,vy,vz) for set TIPMARKER and time  0.1491797E+02

         4  3.876206E-04 -2.040619E-05  7.236403E-07

 displacements (vx,vy,vz) for set TIPMARKER and time  0.1510781E+02

         4  3.908604E-04 -3.244198E-04  6.711770E-07

 displacements (vx,vy,vz) for set TIPMARKER and time  0.1529766E+02

         4  3.925226E-04 -6.918439E-04  6.329624E-07

 displacements (vx,vy,vz) for set TIPMARKER and time  0.1548750E+02

         4  4.022207E-04 -7.378073E-04  5.997319E-07

 displacements (vx,vy,vz) for set TIPMARKER and time  0.1567734E+02

         4  4.044984E-04 -7.982225E-04  5.971696E-07

 displacements (vx,vy,vz) for set TIPMARKER and time  0.1586719E+02

         4  4.081211E-04 -7.809533E-04  6.613226E-07

 displacements (vx,vy,vz) for set TIPMARKER and time  0.1605703E+02

         4  4.183553E-04 -3.771753E-04  7.204398E-07

 displacements (vx,vy,vz) for set TIPMARKER and time  0.1624688E+02

         4  4.196318E-04 -1.123937E-04  7.643151E-07

 displacements (vx,vy,vz) for set TIPMARKER and time  0.1643672E+02

         4  4.244444E-04 -7.762816E-05  8.237992E-07

 displacements (vx,vy,vz) for set TIPMARKER and time  0.1662656E+02

         4  4.336356E-04  7.922563E-05  8.148939E-07

 displacements (vx,vy,vz) for set TIPMARKER and time  0.1681641E+02

         4  4.326100E-04 -6.005635E-05  7.538832E-07

 displacements (vx,vy,vz) for set TIPMARKER and time  0.1700625E+02

         4  4.376576E-04 -4.693458E-04  7.290375E-07

 displacements (vx,vy,vz) for set TIPMARKER and time  0.1719609E+02

         4  4.452709E-04 -6.100928E-04  6.799091E-07

 displacements (vx,vy,vz) for set TIPMARKER and time  0.1738594E+02

         4  4.454705E-04 -7.313363E-04  6.438427E-07

 displacements (vx,vy,vz) for set TIPMARKER and time  0.1757578E+02

         4  4.516209E-04 -8.785975E-04  6.960396E-07

 displacements (vx,vy,vz) for set TIPMARKER and time  0.1776563E+02

         4  4.584431E-04 -6.136899E-04  7.465561E-07

 displacements (vx,vy,vz) for set TIPMARKER and time  0.1795547E+02

         4  4.615221E-04 -2.807062E-04  7.921216E-07

 displacements (vx,vy,vz) for set TIPMARKER and time  0.1814531E+02

         4  4.684481E-04 -1.721591E-04  8.691000E-07

 displacements (vx,vy,vz) for set TIPMARKER and time  0.1833516E+02

         4  4.734308E-04  4.151132E-05  8.830143E-07

 displacements (vx,vy,vz) for set TIPMARKER and time  0.1852500E+02

         4  4.780641E-04  1.149540E-04  8.454851E-07

 displacements (vx,vy,vz) for set TIPMARKER and time  0.1871484E+02

         4  4.843267E-04 -2.073830E-04  8.228132E-07

 displacements (vx,vy,vz) for set TIPMARKER and time  0.1890469E+02

         4  4.865671E-04 -4.425839E-04  7.675224E-07

 displacements (vx,vy,vz) for set TIPMARKER and time  0.1909453E+02

         4  4.926433E-04 -5.718263E-04  7.201423E-07

 displacements (vx,vy,vz) for set TIPMARKER and time  0.1928438E+02

         4  4.986945E-04 -8.365696E-04  7.441573E-07

 displacements (vx,vy,vz) for set TIPMARKER and time  0.1947422E+02

         4  4.992495E-04 -7.975219E-04  7.789753E-07

 displacements (vx,vy,vz) for set TIPMARKER and time  0.1966406E+02

         4  5.075406E-04 -4.661121E-04  8.275477E-07

 displacements (vx,vy,vz) for set TIPMARKER and time  0.1985391E+02

         4  5.136663E-04 -3.159426E-04  9.047289E-07

 displacements (vx,vy,vz) for set TIPMARKER and time  0.2004375E+02

         4  5.129179E-04 -1.045090E-04  9.368154E-07

 displacements (vx,vy,vz) for set TIPMARKER and time  0.2023359E+02

         4  5.222069E-04  1.637270E-04  9.258148E-07

 displacements (vx,vy,vz) for set TIPMARKER and time  0.2042344E+02

         4  5.269352E-04  8.275174E-06  9.026083E-07

 displacements (vx,vy,vz) for set TIPMARKER and time  0.2061328E+02

         4  5.270129E-04 -2.514844E-04  8.540312E-07

 displacements (vx,vy,vz) for set TIPMARKER and time  0.2080313E+02

         4  5.363695E-04 -3.637358E-04  8.002865E-07

 displacements (vx,vy,vz) for set TIPMARKER and time  0.2099297E+02

         4  5.397028E-04 -6.728158E-04  7.870124E-07

 displacements (vx,vy,vz) for set TIPMARKER and time  0.2118281E+02

         4  5.414382E-04 -8.552651E-04  8.173919E-07

 displacements (vx,vy,vz) for set TIPMARKER and time  0.2137266E+02

         4  5.516056E-04 -6.291054E-04  8.623265E-07

 displacements (vx,vy,vz) for set TIPMARKER and time  0.2156250E+02

         4  5.543731E-04 -4.678232E-04  9.219826E-07

 displacements (vx,vy,vz) for set TIPMARKER and time  0.2175234E+02

         4  5.580718E-04 -3.031708E-04  9.899775E-07

 displacements (vx,vy,vz) for set TIPMARKER and time  0.2194219E+02

         4  5.682894E-04  6.523244E-05  1.005793E-06

 displacements (vx,vy,vz) for set TIPMARKER and time  0.2213203E+02

         4  5.694092E-04  1.287566E-04  9.763283E-07

 displacements (vx,vy,vz) for set TIPMARKER and time  0.2232188E+02

         4  5.736984E-04 -8.128711E-05  9.530660E-07

 displacements (vx,vy,vz) for set TIPMARKER and time  0.2251172E+02

         4  5.825523E-04 -1.678563E-04  8.984875E-07

 displacements (vx,vy,vz) for set TIPMARKER and time  0.2270156E+02

         4  5.815706E-04 -4.250153E-04  8.426317E-07

 displacements (vx,vy,vz) for set TIPMARKER and time  0.2289141E+02

         4  5.865982E-04 -7.733686E-04  8.672820E-07

 displacements (vx,vy,vz) for set TIPMARKER and time  0.2308125E+02

         4  5.946528E-04 -7.247451E-04  9.006255E-07

 displacements (vx,vy,vz) for set TIPMARKER and time  0.2327109E+02

         4  5.949468E-04 -5.817100E-04  9.360231E-07

 displacements (vx,vy,vz) for set TIPMARKER and time  0.2346094E+02

         4  6.013715E-04 -5.017260E-04  1.023914E-06

 displacements (vx,vy,vz) for set TIPMARKER and time  0.2365078E+02

         4  6.085460E-04 -1.421518E-04  1.060526E-06

 displacements (vx,vy,vz) for set TIPMARKER and time  0.2384063E+02

         4  6.112023E-04  1.268060E-04  1.042086E-06

 displacements (vx,vy,vz) for set TIPMARKER and time  0.2403047E+02

         4  6.177177E-04  2.587091E-05  1.038494E-06

 displacements (vx,vy,vz) for set TIPMARKER and time  0.2422031E+02

         4  6.225272E-04 -2.110626E-05  9.855009E-07

 displacements (vx,vy,vz) for set TIPMARKER and time  0.2441016E+02

         4  6.265245E-04 -1.595080E-04  9.204624E-07

 displacements (vx,vy,vz) for set TIPMARKER and time  0.2460000E+02

         4  6.326060E-04 -5.713752E-04  9.265437E-07

 displacements (vx,vy,vz) for set TIPMARKER and time  0.2478984E+02

         4  6.353056E-04 -7.170756E-04  9.391997E-07

 displacements (vx,vy,vz) for set TIPMARKER and time  0.2497969E+02

         4  6.414614E-04 -6.330809E-04  9.712910E-07

 displacements (vx,vy,vz) for set TIPMARKER and time  0.2516953E+02

         4  6.479544E-04 -6.443071E-04  1.056585E-06

 displacements (vx,vy,vz) for set TIPMARKER and time  0.2535938E+02

         4  6.491918E-04 -3.932116E-04  1.103900E-06

 displacements (vx,vy,vz) for set TIPMARKER and time  0.2554922E+02

         4  6.573568E-04  9.302761E-07  1.113692E-06

 displacements (vx,vy,vz) for set TIPMARKER and time  0.2573906E+02

         4  6.633945E-04  4.832470E-05  1.118346E-06

 displacements (vx,vy,vz) for set TIPMARKER and time  0.2592891E+02

         4  6.620383E-04  4.644476E-05  1.069193E-06

 displacements (vx,vy,vz) for set TIPMARKER and time  0.2611875E+02

         4  6.707189E-04  5.274122E-05  1.007808E-06

 displacements (vx,vy,vz) for set TIPMARKER and time  0.2630859E+02

         4  6.752601E-04 -2.983080E-04  9.840322E-07

 displacements (vx,vy,vz) for set TIPMARKER and time  0.2649844E+02

         4  6.750076E-04 -6.013917E-04  9.817491E-07

 displacements (vx,vy,vz) for set TIPMARKER and time  0.2668828E+02

         4  6.844265E-04 -6.059635E-04  1.005899E-06

 displacements (vx,vy,vz) for set TIPMARKER and time  0.2687813E+02

         4  6.883073E-04 -6.893810E-04  1.067886E-06

 displacements (vx,vy,vz) for set TIPMARKER and time  0.2706797E+02

         4  6.902153E-04 -6.134453E-04  1.137239E-06

 displacements (vx,vy,vz) for set TIPMARKER and time  0.2725781E+02

         4  7.006325E-04 -2.092008E-04  1.171595E-06

 displacements (vx,vy,vz) for set TIPMARKER and time  0.2744766E+02

         4  7.036605E-04 -1.640018E-05  1.174652E-06

 displacements (vx,vy,vz) for set TIPMARKER and time  0.2763750E+02

         4  7.069237E-04  2.568949E-05  1.162029E-06

 displacements (vx,vy,vz) for set TIPMARKER and time  0.2782734E+02

         4  7.167930E-04  1.611383E-04  1.108665E-06

 displacements (vx,vy,vz) for set TIPMARKER and time  0.2801719E+02

         4  7.177212E-04 -2.862742E-05  1.050536E-06

 displacements (vx,vy,vz) for set TIPMARKER and time  0.2820703E+02

         4  7.215356E-04 -4.048445E-04  1.049200E-06

 displacements (vx,vy,vz) for set TIPMARKER and time  0.2839688E+02

         4  7.304668E-04 -5.070812E-04  1.058892E-06

 displacements (vx,vy,vz) for set TIPMARKER and time  0.2858672E+02

         4  7.299357E-04 -6.312071E-04  1.084053E-06

 displacements (vx,vy,vz) for set TIPMARKER and time  0.2877656E+02

         4  7.351916E-04 -7.409530E-04  1.170172E-06

 displacements (vx,vy,vz) for set TIPMARKER and time  0.2896641E+02

         4  7.438232E-04 -4.435882E-04  1.220809E-06

 displacements (vx,vy,vz) for set TIPMARKER and time  0.2915625E+02

         4  7.439942E-04 -1.515394E-04  1.222197E-06

 displacements (vx,vy,vz) for set TIPMARKER and time  0.2934609E+02

         4  7.503093E-04 -6.879492E-05  1.239116E-06

 displacements (vx,vy,vz) for set TIPMARKER and time  0.2953594E+02

         4  7.574683E-04  1.459638E-04  1.196902E-06

 displacements (vx,vy,vz) for set TIPMARKER and time  0.2972578E+02

         4  7.593620E-04  1.671542E-04  1.124825E-06

 displacements (vx,vy,vz) for set TIPMARKER and time  0.2991563E+02

         4  7.654221E-04 -1.731389E-04  1.115236E-06

 displacements (vx,vy,vz) for set TIPMARKER and time  0.3000000E+02

         4  7.653946E-04 -2.890884E-04  1.103305E-06
