    1C
    1UUSER                                                              
    1UDATE              31.july.2018                                    
    1UTIME              09:18:12                                        
    1UHOST                                                              
    1UPGM               CalculiX                                        
    1UVERSION           Version 2.14                             
    1UCOMPILETIME       Fri Jul 27 16:42:47 CDT 2018                    
    1UDIR                                                               
    1UDBN                                                               
    1UMAT    1METAL                                                     
    2C                         15096                                     1
 -1         1 0.00000E+00-9.53000E-03-9.53000E-03
 -1         3 0.00000E+00-9.53000E-03 9.53000E-03
 -1         5 0.00000E+00 9.53000E-03 9.53000E-03
 -1         7 0.00000E+00 9.53000E-03-9.53000E-03
 -1      3529 0.00000E+00-9.63150E-03-9.53000E-03
 -1      3531 0.00000E+00-9.42850E-03-9.53000E-03
 -1      3532 0.00000E+00-9.53000E-03-9.63150E-03
 -1      3534 0.00000E+00-9.53000E-03-9.42850E-03
 -1      3535 0.00000E+00 0.00000E+00 0.00000E+00
 -1      3537 0.00000E+00 0.00000E+00 0.00000E+00
 -1      3538 0.00000E+00 0.00000E+00 0.00000E+00
 -1      3539 0.00000E+00 0.00000E+00 0.00000E+00
 -1      3540 0.00000E+00 0.00000E+00 0.00000E+00
 -1      3541 0.00000E+00 0.00000E+00 0.00000E+00
 -1      3542 0.00000E+00 0.00000E+00 0.00000E+00
 -1      3543 7.50000E+00-9.63150E-03-9.53000E-03
 -1      3545 7.50000E+00-9.42850E-03-9.53000E-03
 -1      3546 7.50000E+00-9.53000E-03-9.63150E-03
 -1      3548 7.50000E+00-9.53000E-03-9.42850E-03
 -1      3551 0.00000E+00 0.00000E+00 0.00000E+00
 -1      3552 0.00000E+00 0.00000E+00 0.00000E+00
 -1      3553 0.00000E+00 0.00000E+00 0.00000E+00
 -1      3554 0.00000E+00 0.00000E+00 0.00000E+00
 -1      3555 0.00000E+00 0.00000E+00 0.00000E+00
 -1      3556 0.00000E+00 0.00000E+00 0.00000E+00
 -1      3557 0.00000E+00-9.63150E-03 9.53000E-03
 -1      3559 0.00000E+00-9.42850E-03 9.53000E-03
 -1      3560 0.00000E+00-9.53000E-03 9.63150E-03
 -1      3562 0.00000E+00-9.53000E-03 9.42850E-03
 -1      3563 0.00000E+00 0.00000E+00 0.00000E+00
 -1      3565 0.00000E+00 0.00000E+00 0.00000E+00
 -1      3566 0.00000E+00 0.00000E+00 0.00000E+00
 -1      3567 0.00000E+00 0.00000E+00 0.00000E+00
 -1      3568 0.00000E+00 0.00000E+00 0.00000E+00
 -1      3569 0.00000E+00 0.00000E+00 0.00000E+00
 -1      3570 0.00000E+00 0.00000E+00 0.00000E+00
 -1      3571 7.50000E+00-9.63150E-03 9.53000E-03
 -1      3573 7.50000E+00-9.42850E-03 9.53000E-03
 -1      3574 7.50000E+00-9.53000E-03 9.63150E-03
 -1      3576 7.50000E+00-9.53000E-03 9.42850E-03
 -1      3579 0.00000E+00 0.00000E+00 0.00000E+00
 -1      3580 0.00000E+00 0.00000E+00 0.00000E+00
 -1      3581 0.00000E+00 0.00000E+00 0.00000E+00
 -1      3582 0.00000E+00 0.00000E+00 0.00000E+00
 -1      3583 0.00000E+00 0.00000E+00 0.00000E+00
 -1      3584 0.00000E+00 0.00000E+00 0.00000E+00
 -1      3585 0.00000E+00 9.53000E-03 9.63150E-03
 -1      3587 0.00000E+00 9.53000E-03 9.42850E-03
 -1      3588 0.00000E+00 9.63150E-03 9.53000E-03
 -1      3590 0.00000E+00 9.42850E-03 9.53000E-03
 -1      3591 0.00000E+00 0.00000E+00 0.00000E+00
 -1      3593 0.00000E+00 0.00000E+00 0.00000E+00
 -1      3594 0.00000E+00 0.00000E+00 0.00000E+00
 -1      3595 0.00000E+00 0.00000E+00 0.00000E+00
 -1      3596 0.00000E+00 0.00000E+00 0.00000E+00
 -1      3597 0.00000E+00 0.00000E+00 0.00000E+00
 -1      3598 0.00000E+00 0.00000E+00 0.00000E+00
 -1      3599 7.50000E+00 9.53000E-03 9.63150E-03
 -1      3601 7.50000E+00 9.53000E-03 9.42850E-03
 -1      3602 7.50000E+00 9.63150E-03 9.53000E-03
 -1      3604 7.50000E+00 9.42850E-03 9.53000E-03
 -1      3607 0.00000E+00 0.00000E+00 0.00000E+00
 -1      3608 0.00000E+00 0.00000E+00 0.00000E+00
 -1      3609 0.00000E+00 0.00000E+00 0.00000E+00
 -1      3610 0.00000E+00 0.00000E+00 0.00000E+00
 -1      3611 0.00000E+00 0.00000E+00 0.00000E+00
 -1      3612 0.00000E+00 0.00000E+00 0.00000E+00
 -1      3613 0.00000E+00 9.63150E-03-9.53000E-03
 -1      3615 0.00000E+00 9.42850E-03-9.53000E-03
 -1      3616 0.00000E+00 9.53000E-03-9.63150E-03
 -1      3618 0.00000E+00 9.53000E-03-9.42850E-03
 -1      3619 0.00000E+00 0.00000E+00 0.00000E+00
 -1      3621 0.00000E+00 0.00000E+00 0.00000E+00
 -1      3622 0.00000E+00 0.00000E+00 0.00000E+00
 -1      3623 0.00000E+00 0.00000E+00 0.00000E+00
 -1      3624 0.00000E+00 0.00000E+00 0.00000E+00
 -1      3625 0.00000E+00 0.00000E+00 0.00000E+00
 -1      3626 0.00000E+00 0.00000E+00 0.00000E+00
 -1      3627 7.50000E+00 9.63150E-03-9.53000E-03
 -1      3629 7.50000E+00 9.42850E-03-9.53000E-03
 -1      3630 7.50000E+00 9.53000E-03-9.63150E-03
 -1      3632 7.50000E+00 9.53000E-03-9.42850E-03
 -1      3635 0.00000E+00 0.00000E+00 0.00000E+00
 -1      3636 0.00000E+00 0.00000E+00 0.00000E+00
 -1      3637 0.00000E+00 0.00000E+00 0.00000E+00
 -1      3638 0.00000E+00 0.00000E+00 0.00000E+00
 -1      3639 0.00000E+00 0.00000E+00 0.00000E+00
 -1      3640 0.00000E+00 0.00000E+00 0.00000E+00
 -1      3641 3.00000E-02-9.63150E-03-9.53000E-03
 -1      3643 3.00000E-02-9.42850E-03-9.53000E-03
 -1      3644 3.00000E-02-9.53000E-03-9.63150E-03
 -1      3646 3.00000E-02-9.53000E-03-9.42850E-03
 -1      3649 0.00000E+00 0.00000E+00 0.00000E+00
 -1      3650 0.00000E+00 0.00000E+00 0.00000E+00
 -1      3651 0.00000E+00 0.00000E+00 0.00000E+00
 -1      3652 0.00000E+00 0.00000E+00 0.00000E+00
 -1      3653 0.00000E+00 0.00000E+00 0.00000E+00
 -1      3654 0.00000E+00 0.00000E+00 0.00000E+00
 -1      3655 6.00000E-02-9.63150E-03-9.53000E-03
 -1      3657 6.00000E-02-9.42850E-03-9.53000E-03
 -1      3658 6.00000E-02-9.53000E-03-9.63150E-03
 -1      3660 6.00000E-02-9.53000E-03-9.42850E-03
 -1      3663 0.00000E+00 0.00000E+00 0.00000E+00
 -1      3664 0.00000E+00 0.00000E+00 0.00000E+00
 -1      3665 0.00000E+00 0.00000E+00 0.00000E+00
 -1      3666 0.00000E+00 0.00000E+00 0.00000E+00
 -1      3667 0.00000E+00 0.00000E+00 0.00000E+00
 -1      3668 0.00000E+00 0.00000E+00 0.00000E+00
 -1      3669 9.00000E-02-9.63150E-03-9.53000E-03
 -1      3671 9.00000E-02-9.42850E-03-9.53000E-03
 -1      3672 9.00000E-02-9.53000E-03-9.63150E-03
 -1      3674 9.00000E-02-9.53000E-03-9.42850E-03
 -1      3677 0.00000E+00 0.00000E+00 0.00000E+00
 -1      3678 0.00000E+00 0.00000E+00 0.00000E+00
 -1      3679 0.00000E+00 0.00000E+00 0.00000E+00
 -1      3680 0.00000E+00 0.00000E+00 0.00000E+00
 -1      3681 0.00000E+00 0.00000E+00 0.00000E+00
 -1      3682 0.00000E+00 0.00000E+00 0.00000E+00
 -1      3683 1.20000E-01-9.63150E-03-9.53000E-03
 -1      3685 1.20000E-01-9.42850E-03-9.53000E-03
 -1      3686 1.20000E-01-9.53000E-03-9.63150E-03
 -1      3688 1.20000E-01-9.53000E-03-9.42850E-03
 -1      3691 0.00000E+00 0.00000E+00 0.00000E+00
 -1      3692 0.00000E+00 0.00000E+00 0.00000E+00
 -1      3693 0.00000E+00 0.00000E+00 0.00000E+00
 -1      3694 0.00000E+00 0.00000E+00 0.00000E+00
 -1      3695 0.00000E+00 0.00000E+00 0.00000E+00
 -1      3696 0.00000E+00 0.00000E+00 0.00000E+00
 -1      3697 1.50000E-01-9.63150E-03-9.53000E-03
 -1      3699 1.50000E-01-9.42850E-03-9.53000E-03
 -1      3700 1.50000E-01-9.53000E-03-9.63150E-03
 -1      3702 1.50000E-01-9.53000E-03-9.42850E-03
 -1      3705 0.00000E+00 0.00000E+00 0.00000E+00
 -1      3706 0.00000E+00 0.00000E+00 0.00000E+00
 -1      3707 0.00000E+00 0.00000E+00 0.00000E+00
 -1      3708 0.00000E+00 0.00000E+00 0.00000E+00
 -1      3709 0.00000E+00 0.00000E+00 0.00000E+00
 -1      3710 0.00000E+00 0.00000E+00 0.00000E+00
 -1      3711 1.80000E-01-9.63150E-03-9.53000E-03
 -1      3713 1.80000E-01-9.42850E-03-9.53000E-03
 -1      3714 1.80000E-01-9.53000E-03-9.63150E-03
 -1      3716 1.80000E-01-9.53000E-03-9.42850E-03
 -1      3719 0.00000E+00 0.00000E+00 0.00000E+00
 -1      3720 0.00000E+00 0.00000E+00 0.00000E+00
 -1      3721 0.00000E+00 0.00000E+00 0.00000E+00
 -1      3722 0.00000E+00 0.00000E+00 0.00000E+00
 -1      3723 0.00000E+00 0.00000E+00 0.00000E+00
 -1      3724 0.00000E+00 0.00000E+00 0.00000E+00
 -1      3725 2.10000E-01-9.63150E-03-9.53000E-03
 -1      3727 2.10000E-01-9.42850E-03-9.53000E-03
 -1      3728 2.10000E-01-9.53000E-03-9.63150E-03
 -1      3730 2.10000E-01-9.53000E-03-9.42850E-03
 -1      3733 0.00000E+00 0.00000E+00 0.00000E+00
 -1      3734 0.00000E+00 0.00000E+00 0.00000E+00
 -1      3735 0.00000E+00 0.00000E+00 0.00000E+00
 -1      3736 0.00000E+00 0.00000E+00 0.00000E+00
 -1      3737 0.00000E+00 0.00000E+00 0.00000E+00
 -1      3738 0.00000E+00 0.00000E+00 0.00000E+00
 -1      3739 2.40000E-01-9.63150E-03-9.53000E-03
 -1      3741 2.40000E-01-9.42850E-03-9.53000E-03
 -1      3742 2.40000E-01-9.53000E-03-9.63150E-03
 -1      3744 2.40000E-01-9.53000E-03-9.42850E-03
 -1      3747 0.00000E+00 0.00000E+00 0.00000E+00
 -1      3748 0.00000E+00 0.00000E+00 0.00000E+00
 -1      3749 0.00000E+00 0.00000E+00 0.00000E+00
 -1      3750 0.00000E+00 0.00000E+00 0.00000E+00
 -1      3751 0.00000E+00 0.00000E+00 0.00000E+00
 -1      3752 0.00000E+00 0.00000E+00 0.00000E+00
 -1      3753 2.70000E-01-9.63150E-03-9.53000E-03
 -1      3755 2.70000E-01-9.42850E-03-9.53000E-03
 -1      3756 2.70000E-01-9.53000E-03-9.63150E-03
 -1      3758 2.70000E-01-9.53000E-03-9.42850E-03
 -1      3761 0.00000E+00 0.00000E+00 0.00000E+00
 -1      3762 0.00000E+00 0.00000E+00 0.00000E+00
 -1      3763 0.00000E+00 0.00000E+00 0.00000E+00
 -1      3764 0.00000E+00 0.00000E+00 0.00000E+00
 -1      3765 0.00000E+00 0.00000E+00 0.00000E+00
 -1      3766 0.00000E+00 0.00000E+00 0.00000E+00
 -1      3767 3.00000E-01-9.63150E-03-9.53000E-03
 -1      3769 3.00000E-01-9.42850E-03-9.53000E-03
 -1      3770 3.00000E-01-9.53000E-03-9.63150E-03
 -1      3772 3.00000E-01-9.53000E-03-9.42850E-03
 -1      3775 0.00000E+00 0.00000E+00 0.00000E+00
 -1      3776 0.00000E+00 0.00000E+00 0.00000E+00
 -1      3777 0.00000E+00 0.00000E+00 0.00000E+00
 -1      3778 0.00000E+00 0.00000E+00 0.00000E+00
 -1      3779 0.00000E+00 0.00000E+00 0.00000E+00
 -1      3780 0.00000E+00 0.00000E+00 0.00000E+00
 -1      3781 3.30000E-01-9.63150E-03-9.53000E-03
 -1      3783 3.30000E-01-9.42850E-03-9.53000E-03
 -1      3784 3.30000E-01-9.53000E-03-9.63150E-03
 -1      3786 3.30000E-01-9.53000E-03-9.42850E-03
 -1      3789 0.00000E+00 0.00000E+00 0.00000E+00
 -1      3790 0.00000E+00 0.00000E+00 0.00000E+00
 -1      3791 0.00000E+00 0.00000E+00 0.00000E+00
 -1      3792 0.00000E+00 0.00000E+00 0.00000E+00
 -1      3793 0.00000E+00 0.00000E+00 0.00000E+00
 -1      3794 0.00000E+00 0.00000E+00 0.00000E+00
 -1      3795 3.60000E-01-9.63150E-03-9.53000E-03
 -1      3797 3.60000E-01-9.42850E-03-9.53000E-03
 -1      3798 3.60000E-01-9.53000E-03-9.63150E-03
 -1      3800 3.60000E-01-9.53000E-03-9.42850E-03
 -1      3803 0.00000E+00 0.00000E+00 0.00000E+00
 -1      3804 0.00000E+00 0.00000E+00 0.00000E+00
 -1      3805 0.00000E+00 0.00000E+00 0.00000E+00
 -1      3806 0.00000E+00 0.00000E+00 0.00000E+00
 -1      3807 0.00000E+00 0.00000E+00 0.00000E+00
 -1      3808 0.00000E+00 0.00000E+00 0.00000E+00
 -1      3809 3.90000E-01-9.63150E-03-9.53000E-03
 -1      3811 3.90000E-01-9.42850E-03-9.53000E-03
 -1      3812 3.90000E-01-9.53000E-03-9.63150E-03
 -1      3814 3.90000E-01-9.53000E-03-9.42850E-03
 -1      3817 0.00000E+00 0.00000E+00 0.00000E+00
 -1      3818 0.00000E+00 0.00000E+00 0.00000E+00
 -1      3819 0.00000E+00 0.00000E+00 0.00000E+00
 -1      3820 0.00000E+00 0.00000E+00 0.00000E+00
 -1      3821 0.00000E+00 0.00000E+00 0.00000E+00
 -1      3822 0.00000E+00 0.00000E+00 0.00000E+00
 -1      3823 4.20000E-01-9.63150E-03-9.53000E-03
 -1      3825 4.20000E-01-9.42850E-03-9.53000E-03
 -1      3826 4.20000E-01-9.53000E-03-9.63150E-03
 -1      3828 4.20000E-01-9.53000E-03-9.42850E-03
 -1      3831 0.00000E+00 0.00000E+00 0.00000E+00
 -1      3832 0.00000E+00 0.00000E+00 0.00000E+00
 -1      3833 0.00000E+00 0.00000E+00 0.00000E+00
 -1      3834 0.00000E+00 0.00000E+00 0.00000E+00
 -1      3835 0.00000E+00 0.00000E+00 0.00000E+00
 -1      3836 0.00000E+00 0.00000E+00 0.00000E+00
 -1      3837 4.50000E-01-9.63150E-03-9.53000E-03
 -1      3839 4.50000E-01-9.42850E-03-9.53000E-03
 -1      3840 4.50000E-01-9.53000E-03-9.63150E-03
 -1      3842 4.50000E-01-9.53000E-03-9.42850E-03
 -1      3845 0.00000E+00 0.00000E+00 0.00000E+00
 -1      3846 0.00000E+00 0.00000E+00 0.00000E+00
 -1      3847 0.00000E+00 0.00000E+00 0.00000E+00
 -1      3848 0.00000E+00 0.00000E+00 0.00000E+00
 -1      3849 0.00000E+00 0.00000E+00 0.00000E+00
 -1      3850 0.00000E+00 0.00000E+00 0.00000E+00
 -1      3851 4.80000E-01-9.63150E-03-9.53000E-03
 -1      3853 4.80000E-01-9.42850E-03-9.53000E-03
 -1      3854 4.80000E-01-9.53000E-03-9.63150E-03
 -1      3856 4.80000E-01-9.53000E-03-9.42850E-03
 -1      3859 0.00000E+00 0.00000E+00 0.00000E+00
 -1      3860 0.00000E+00 0.00000E+00 0.00000E+00
 -1      3861 0.00000E+00 0.00000E+00 0.00000E+00
 -1      3862 0.00000E+00 0.00000E+00 0.00000E+00
 -1      3863 0.00000E+00 0.00000E+00 0.00000E+00
 -1      3864 0.00000E+00 0.00000E+00 0.00000E+00
 -1      3865 5.10000E-01-9.63150E-03-9.53000E-03
 -1      3867 5.10000E-01-9.42850E-03-9.53000E-03
 -1      3868 5.10000E-01-9.53000E-03-9.63150E-03
 -1      3870 5.10000E-01-9.53000E-03-9.42850E-03
 -1      3873 0.00000E+00 0.00000E+00 0.00000E+00
 -1      3874 0.00000E+00 0.00000E+00 0.00000E+00
 -1      3875 0.00000E+00 0.00000E+00 0.00000E+00
 -1      3876 0.00000E+00 0.00000E+00 0.00000E+00
 -1      3877 0.00000E+00 0.00000E+00 0.00000E+00
 -1      3878 0.00000E+00 0.00000E+00 0.00000E+00
 -1      3879 5.40000E-01-9.63150E-03-9.53000E-03
 -1      3881 5.40000E-01-9.42850E-03-9.53000E-03
 -1      3882 5.40000E-01-9.53000E-03-9.63150E-03
 -1      3884 5.40000E-01-9.53000E-03-9.42850E-03
 -1      3887 0.00000E+00 0.00000E+00 0.00000E+00
 -1      3888 0.00000E+00 0.00000E+00 0.00000E+00
 -1      3889 0.00000E+00 0.00000E+00 0.00000E+00
 -1      3890 0.00000E+00 0.00000E+00 0.00000E+00
 -1      3891 0.00000E+00 0.00000E+00 0.00000E+00
 -1      3892 0.00000E+00 0.00000E+00 0.00000E+00
 -1      3893 5.70000E-01-9.63150E-03-9.53000E-03
 -1      3895 5.70000E-01-9.42850E-03-9.53000E-03
 -1      3896 5.70000E-01-9.53000E-03-9.63150E-03
 -1      3898 5.70000E-01-9.53000E-03-9.42850E-03
 -1      3901 0.00000E+00 0.00000E+00 0.00000E+00
 -1      3902 0.00000E+00 0.00000E+00 0.00000E+00
 -1      3903 0.00000E+00 0.00000E+00 0.00000E+00
 -1      3904 0.00000E+00 0.00000E+00 0.00000E+00
 -1      3905 0.00000E+00 0.00000E+00 0.00000E+00
 -1      3906 0.00000E+00 0.00000E+00 0.00000E+00
 -1      3907 6.00000E-01-9.63150E-03-9.53000E-03
 -1      3909 6.00000E-01-9.42850E-03-9.53000E-03
 -1      3910 6.00000E-01-9.53000E-03-9.63150E-03
 -1      3912 6.00000E-01-9.53000E-03-9.42850E-03
 -1      3915 0.00000E+00 0.00000E+00 0.00000E+00
 -1      3916 0.00000E+00 0.00000E+00 0.00000E+00
 -1      3917 0.00000E+00 0.00000E+00 0.00000E+00
 -1      3918 0.00000E+00 0.00000E+00 0.00000E+00
 -1      3919 0.00000E+00 0.00000E+00 0.00000E+00
 -1      3920 0.00000E+00 0.00000E+00 0.00000E+00
 -1      3921 6.30000E-01-9.63150E-03-9.53000E-03
 -1      3923 6.30000E-01-9.42850E-03-9.53000E-03
 -1      3924 6.30000E-01-9.53000E-03-9.63150E-03
 -1      3926 6.30000E-01-9.53000E-03-9.42850E-03
 -1      3929 0.00000E+00 0.00000E+00 0.00000E+00
 -1      3930 0.00000E+00 0.00000E+00 0.00000E+00
 -1      3931 0.00000E+00 0.00000E+00 0.00000E+00
 -1      3932 0.00000E+00 0.00000E+00 0.00000E+00
 -1      3933 0.00000E+00 0.00000E+00 0.00000E+00
 -1      3934 0.00000E+00 0.00000E+00 0.00000E+00
 -1      3935 6.60000E-01-9.63150E-03-9.53000E-03
 -1      3937 6.60000E-01-9.42850E-03-9.53000E-03
 -1      3938 6.60000E-01-9.53000E-03-9.63150E-03
 -1      3940 6.60000E-01-9.53000E-03-9.42850E-03
 -1      3943 0.00000E+00 0.00000E+00 0.00000E+00
 -1      3944 0.00000E+00 0.00000E+00 0.00000E+00
 -1      3945 0.00000E+00 0.00000E+00 0.00000E+00
 -1      3946 0.00000E+00 0.00000E+00 0.00000E+00
 -1      3947 0.00000E+00 0.00000E+00 0.00000E+00
 -1      3948 0.00000E+00 0.00000E+00 0.00000E+00
 -1      3949 6.90000E-01-9.63150E-03-9.53000E-03
 -1      3951 6.90000E-01-9.42850E-03-9.53000E-03
 -1      3952 6.90000E-01-9.53000E-03-9.63150E-03
 -1      3954 6.90000E-01-9.53000E-03-9.42850E-03
 -1      3957 0.00000E+00 0.00000E+00 0.00000E+00
 -1      3958 0.00000E+00 0.00000E+00 0.00000E+00
 -1      3959 0.00000E+00 0.00000E+00 0.00000E+00
 -1      3960 0.00000E+00 0.00000E+00 0.00000E+00
 -1      3961 0.00000E+00 0.00000E+00 0.00000E+00
 -1      3962 0.00000E+00 0.00000E+00 0.00000E+00
 -1      3963 7.20000E-01-9.63150E-03-9.53000E-03
 -1      3965 7.20000E-01-9.42850E-03-9.53000E-03
 -1      3966 7.20000E-01-9.53000E-03-9.63150E-03
 -1      3968 7.20000E-01-9.53000E-03-9.42850E-03
 -1      3971 0.00000E+00 0.00000E+00 0.00000E+00
 -1      3972 0.00000E+00 0.00000E+00 0.00000E+00
 -1      3973 0.00000E+00 0.00000E+00 0.00000E+00
 -1      3974 0.00000E+00 0.00000E+00 0.00000E+00
 -1      3975 0.00000E+00 0.00000E+00 0.00000E+00
 -1      3976 0.00000E+00 0.00000E+00 0.00000E+00
 -1      3977 7.50000E-01-9.63150E-03-9.53000E-03
 -1      3979 7.50000E-01-9.42850E-03-9.53000E-03
 -1      3980 7.50000E-01-9.53000E-03-9.63150E-03
 -1      3982 7.50000E-01-9.53000E-03-9.42850E-03
 -1      3985 0.00000E+00 0.00000E+00 0.00000E+00
 -1      3986 0.00000E+00 0.00000E+00 0.00000E+00
 -1      3987 0.00000E+00 0.00000E+00 0.00000E+00
 -1      3988 0.00000E+00 0.00000E+00 0.00000E+00
 -1      3989 0.00000E+00 0.00000E+00 0.00000E+00
 -1      3990 0.00000E+00 0.00000E+00 0.00000E+00
 -1      3991 7.80000E-01-9.63150E-03-9.53000E-03
 -1      3993 7.80000E-01-9.42850E-03-9.53000E-03
 -1      3994 7.80000E-01-9.53000E-03-9.63150E-03
 -1      3996 7.80000E-01-9.53000E-03-9.42850E-03
 -1      3999 0.00000E+00 0.00000E+00 0.00000E+00
 -1      4000 0.00000E+00 0.00000E+00 0.00000E+00
 -1      4001 0.00000E+00 0.00000E+00 0.00000E+00
 -1      4002 0.00000E+00 0.00000E+00 0.00000E+00
 -1      4003 0.00000E+00 0.00000E+00 0.00000E+00
 -1      4004 0.00000E+00 0.00000E+00 0.00000E+00
 -1      4005 8.10000E-01-9.63150E-03-9.53000E-03
 -1      4007 8.10000E-01-9.42850E-03-9.53000E-03
 -1      4008 8.10000E-01-9.53000E-03-9.63150E-03
 -1      4010 8.10000E-01-9.53000E-03-9.42850E-03
 -1      4013 0.00000E+00 0.00000E+00 0.00000E+00
 -1      4014 0.00000E+00 0.00000E+00 0.00000E+00
 -1      4015 0.00000E+00 0.00000E+00 0.00000E+00
 -1      4016 0.00000E+00 0.00000E+00 0.00000E+00
 -1      4017 0.00000E+00 0.00000E+00 0.00000E+00
 -1      4018 0.00000E+00 0.00000E+00 0.00000E+00
 -1      4019 8.40000E-01-9.63150E-03-9.53000E-03
 -1      4021 8.40000E-01-9.42850E-03-9.53000E-03
 -1      4022 8.40000E-01-9.53000E-03-9.63150E-03
 -1      4024 8.40000E-01-9.53000E-03-9.42850E-03
 -1      4027 0.00000E+00 0.00000E+00 0.00000E+00
 -1      4028 0.00000E+00 0.00000E+00 0.00000E+00
 -1      4029 0.00000E+00 0.00000E+00 0.00000E+00
 -1      4030 0.00000E+00 0.00000E+00 0.00000E+00
 -1      4031 0.00000E+00 0.00000E+00 0.00000E+00
 -1      4032 0.00000E+00 0.00000E+00 0.00000E+00
 -1      4033 8.70000E-01-9.63150E-03-9.53000E-03
 -1      4035 8.70000E-01-9.42850E-03-9.53000E-03
 -1      4036 8.70000E-01-9.53000E-03-9.63150E-03
 -1      4038 8.70000E-01-9.53000E-03-9.42850E-03
 -1      4041 0.00000E+00 0.00000E+00 0.00000E+00
 -1      4042 0.00000E+00 0.00000E+00 0.00000E+00
 -1      4043 0.00000E+00 0.00000E+00 0.00000E+00
 -1      4044 0.00000E+00 0.00000E+00 0.00000E+00
 -1      4045 0.00000E+00 0.00000E+00 0.00000E+00
 -1      4046 0.00000E+00 0.00000E+00 0.00000E+00
 -1      4047 9.00000E-01-9.63150E-03-9.53000E-03
 -1      4049 9.00000E-01-9.42850E-03-9.53000E-03
 -1      4050 9.00000E-01-9.53000E-03-9.63150E-03
 -1      4052 9.00000E-01-9.53000E-03-9.42850E-03
 -1      4055 0.00000E+00 0.00000E+00 0.00000E+00
 -1      4056 0.00000E+00 0.00000E+00 0.00000E+00
 -1      4057 0.00000E+00 0.00000E+00 0.00000E+00
 -1      4058 0.00000E+00 0.00000E+00 0.00000E+00
 -1      4059 0.00000E+00 0.00000E+00 0.00000E+00
 -1      4060 0.00000E+00 0.00000E+00 0.00000E+00
 -1      4061 9.30000E-01-9.63150E-03-9.53000E-03
 -1      4063 9.30000E-01-9.42850E-03-9.53000E-03
 -1      4064 9.30000E-01-9.53000E-03-9.63150E-03
 -1      4066 9.30000E-01-9.53000E-03-9.42850E-03
 -1      4069 0.00000E+00 0.00000E+00 0.00000E+00
 -1      4070 0.00000E+00 0.00000E+00 0.00000E+00
 -1      4071 0.00000E+00 0.00000E+00 0.00000E+00
 -1      4072 0.00000E+00 0.00000E+00 0.00000E+00
 -1      4073 0.00000E+00 0.00000E+00 0.00000E+00
 -1      4074 0.00000E+00 0.00000E+00 0.00000E+00
 -1      4075 9.60000E-01-9.63150E-03-9.53000E-03
 -1      4077 9.60000E-01-9.42850E-03-9.53000E-03
 -1      4078 9.60000E-01-9.53000E-03-9.63150E-03
 -1      4080 9.60000E-01-9.53000E-03-9.42850E-03
 -1      4083 0.00000E+00 0.00000E+00 0.00000E+00
 -1      4084 0.00000E+00 0.00000E+00 0.00000E+00
 -1      4085 0.00000E+00 0.00000E+00 0.00000E+00
 -1      4086 0.00000E+00 0.00000E+00 0.00000E+00
 -1      4087 0.00000E+00 0.00000E+00 0.00000E+00
 -1      4088 0.00000E+00 0.00000E+00 0.00000E+00
 -1      4089 9.90000E-01-9.63150E-03-9.53000E-03
 -1      4091 9.90000E-01-9.42850E-03-9.53000E-03
 -1      4092 9.90000E-01-9.53000E-03-9.63150E-03
 -1      4094 9.90000E-01-9.53000E-03-9.42850E-03
 -1      4097 0.00000E+00 0.00000E+00 0.00000E+00
 -1      4098 0.00000E+00 0.00000E+00 0.00000E+00
 -1      4099 0.00000E+00 0.00000E+00 0.00000E+00
 -1      4100 0.00000E+00 0.00000E+00 0.00000E+00
 -1      4101 0.00000E+00 0.00000E+00 0.00000E+00
 -1      4102 0.00000E+00 0.00000E+00 0.00000E+00
 -1      4103 1.02000E+00-9.63150E-03-9.53000E-03
 -1      4105 1.02000E+00-9.42850E-03-9.53000E-03
 -1      4106 1.02000E+00-9.53000E-03-9.63150E-03
 -1      4108 1.02000E+00-9.53000E-03-9.42850E-03
 -1      4111 0.00000E+00 0.00000E+00 0.00000E+00
 -1      4112 0.00000E+00 0.00000E+00 0.00000E+00
 -1      4113 0.00000E+00 0.00000E+00 0.00000E+00
 -1      4114 0.00000E+00 0.00000E+00 0.00000E+00
 -1      4115 0.00000E+00 0.00000E+00 0.00000E+00
 -1      4116 0.00000E+00 0.00000E+00 0.00000E+00
 -1      4117 1.05000E+00-9.63150E-03-9.53000E-03
 -1      4119 1.05000E+00-9.42850E-03-9.53000E-03
 -1      4120 1.05000E+00-9.53000E-03-9.63150E-03
 -1      4122 1.05000E+00-9.53000E-03-9.42850E-03
 -1      4125 0.00000E+00 0.00000E+00 0.00000E+00
 -1      4126 0.00000E+00 0.00000E+00 0.00000E+00
 -1      4127 0.00000E+00 0.00000E+00 0.00000E+00
 -1      4128 0.00000E+00 0.00000E+00 0.00000E+00
 -1      4129 0.00000E+00 0.00000E+00 0.00000E+00
 -1      4130 0.00000E+00 0.00000E+00 0.00000E+00
 -1      4131 1.08000E+00-9.63150E-03-9.53000E-03
 -1      4133 1.08000E+00-9.42850E-03-9.53000E-03
 -1      4134 1.08000E+00-9.53000E-03-9.63150E-03
 -1      4136 1.08000E+00-9.53000E-03-9.42850E-03
 -1      4139 0.00000E+00 0.00000E+00 0.00000E+00
 -1      4140 0.00000E+00 0.00000E+00 0.00000E+00
 -1      4141 0.00000E+00 0.00000E+00 0.00000E+00
 -1      4142 0.00000E+00 0.00000E+00 0.00000E+00
 -1      4143 0.00000E+00 0.00000E+00 0.00000E+00
 -1      4144 0.00000E+00 0.00000E+00 0.00000E+00
 -1      4145 1.11000E+00-9.63150E-03-9.53000E-03
 -1      4147 1.11000E+00-9.42850E-03-9.53000E-03
 -1      4148 1.11000E+00-9.53000E-03-9.63150E-03
 -1      4150 1.11000E+00-9.53000E-03-9.42850E-03
 -1      4153 0.00000E+00 0.00000E+00 0.00000E+00
 -1      4154 0.00000E+00 0.00000E+00 0.00000E+00
 -1      4155 0.00000E+00 0.00000E+00 0.00000E+00
 -1      4156 0.00000E+00 0.00000E+00 0.00000E+00
 -1      4157 0.00000E+00 0.00000E+00 0.00000E+00
 -1      4158 0.00000E+00 0.00000E+00 0.00000E+00
 -1      4159 1.14000E+00-9.63150E-03-9.53000E-03
 -1      4161 1.14000E+00-9.42850E-03-9.53000E-03
 -1      4162 1.14000E+00-9.53000E-03-9.63150E-03
 -1      4164 1.14000E+00-9.53000E-03-9.42850E-03
 -1      4167 0.00000E+00 0.00000E+00 0.00000E+00
 -1      4168 0.00000E+00 0.00000E+00 0.00000E+00
 -1      4169 0.00000E+00 0.00000E+00 0.00000E+00
 -1      4170 0.00000E+00 0.00000E+00 0.00000E+00
 -1      4171 0.00000E+00 0.00000E+00 0.00000E+00
 -1      4172 0.00000E+00 0.00000E+00 0.00000E+00
 -1      4173 1.17000E+00-9.63150E-03-9.53000E-03
 -1      4175 1.17000E+00-9.42850E-03-9.53000E-03
 -1      4176 1.17000E+00-9.53000E-03-9.63150E-03
 -1      4178 1.17000E+00-9.53000E-03-9.42850E-03
 -1      4181 0.00000E+00 0.00000E+00 0.00000E+00
 -1      4182 0.00000E+00 0.00000E+00 0.00000E+00
 -1      4183 0.00000E+00 0.00000E+00 0.00000E+00
 -1      4184 0.00000E+00 0.00000E+00 0.00000E+00
 -1      4185 0.00000E+00 0.00000E+00 0.00000E+00
 -1      4186 0.00000E+00 0.00000E+00 0.00000E+00
 -1      4187 1.20000E+00-9.63150E-03-9.53000E-03
 -1      4189 1.20000E+00-9.42850E-03-9.53000E-03
 -1      4190 1.20000E+00-9.53000E-03-9.63150E-03
 -1      4192 1.20000E+00-9.53000E-03-9.42850E-03
 -1      4195 0.00000E+00 0.00000E+00 0.00000E+00
 -1      4196 0.00000E+00 0.00000E+00 0.00000E+00
 -1      4197 0.00000E+00 0.00000E+00 0.00000E+00
 -1      4198 0.00000E+00 0.00000E+00 0.00000E+00
 -1      4199 0.00000E+00 0.00000E+00 0.00000E+00
 -1      4200 0.00000E+00 0.00000E+00 0.00000E+00
 -1      4201 1.23000E+00-9.63150E-03-9.53000E-03
 -1      4203 1.23000E+00-9.42850E-03-9.53000E-03
 -1      4204 1.23000E+00-9.53000E-03-9.63150E-03
 -1      4206 1.23000E+00-9.53000E-03-9.42850E-03
 -1      4209 0.00000E+00 0.00000E+00 0.00000E+00
 -1      4210 0.00000E+00 0.00000E+00 0.00000E+00
 -1      4211 0.00000E+00 0.00000E+00 0.00000E+00
 -1      4212 0.00000E+00 0.00000E+00 0.00000E+00
 -1      4213 0.00000E+00 0.00000E+00 0.00000E+00
 -1      4214 0.00000E+00 0.00000E+00 0.00000E+00
 -1      4215 1.26000E+00-9.63150E-03-9.53000E-03
 -1      4217 1.26000E+00-9.42850E-03-9.53000E-03
 -1      4218 1.26000E+00-9.53000E-03-9.63150E-03
 -1      4220 1.26000E+00-9.53000E-03-9.42850E-03
 -1      4223 0.00000E+00 0.00000E+00 0.00000E+00
 -1      4224 0.00000E+00 0.00000E+00 0.00000E+00
 -1      4225 0.00000E+00 0.00000E+00 0.00000E+00
 -1      4226 0.00000E+00 0.00000E+00 0.00000E+00
 -1      4227 0.00000E+00 0.00000E+00 0.00000E+00
 -1      4228 0.00000E+00 0.00000E+00 0.00000E+00
 -1      4229 1.29000E+00-9.63150E-03-9.53000E-03
 -1      4231 1.29000E+00-9.42850E-03-9.53000E-03
 -1      4232 1.29000E+00-9.53000E-03-9.63150E-03
 -1      4234 1.29000E+00-9.53000E-03-9.42850E-03
 -1      4237 0.00000E+00 0.00000E+00 0.00000E+00
 -1      4238 0.00000E+00 0.00000E+00 0.00000E+00
 -1      4239 0.00000E+00 0.00000E+00 0.00000E+00
 -1      4240 0.00000E+00 0.00000E+00 0.00000E+00
 -1      4241 0.00000E+00 0.00000E+00 0.00000E+00
 -1      4242 0.00000E+00 0.00000E+00 0.00000E+00
 -1      4243 1.32000E+00-9.63150E-03-9.53000E-03
 -1      4245 1.32000E+00-9.42850E-03-9.53000E-03
 -1      4246 1.32000E+00-9.53000E-03-9.63150E-03
 -1      4248 1.32000E+00-9.53000E-03-9.42850E-03
 -1      4251 0.00000E+00 0.00000E+00 0.00000E+00
 -1      4252 0.00000E+00 0.00000E+00 0.00000E+00
 -1      4253 0.00000E+00 0.00000E+00 0.00000E+00
 -1      4254 0.00000E+00 0.00000E+00 0.00000E+00
 -1      4255 0.00000E+00 0.00000E+00 0.00000E+00
 -1      4256 0.00000E+00 0.00000E+00 0.00000E+00
 -1      4257 1.35000E+00-9.63150E-03-9.53000E-03
 -1      4259 1.35000E+00-9.42850E-03-9.53000E-03
 -1      4260 1.35000E+00-9.53000E-03-9.63150E-03
 -1      4262 1.35000E+00-9.53000E-03-9.42850E-03
 -1      4265 0.00000E+00 0.00000E+00 0.00000E+00
 -1      4266 0.00000E+00 0.00000E+00 0.00000E+00
 -1      4267 0.00000E+00 0.00000E+00 0.00000E+00
 -1      4268 0.00000E+00 0.00000E+00 0.00000E+00
 -1      4269 0.00000E+00 0.00000E+00 0.00000E+00
 -1      4270 0.00000E+00 0.00000E+00 0.00000E+00
 -1      4271 1.38000E+00-9.63150E-03-9.53000E-03
 -1      4273 1.38000E+00-9.42850E-03-9.53000E-03
 -1      4274 1.38000E+00-9.53000E-03-9.63150E-03
 -1      4276 1.38000E+00-9.53000E-03-9.42850E-03
 -1      4279 0.00000E+00 0.00000E+00 0.00000E+00
 -1      4280 0.00000E+00 0.00000E+00 0.00000E+00
 -1      4281 0.00000E+00 0.00000E+00 0.00000E+00
 -1      4282 0.00000E+00 0.00000E+00 0.00000E+00
 -1      4283 0.00000E+00 0.00000E+00 0.00000E+00
 -1      4284 0.00000E+00 0.00000E+00 0.00000E+00
 -1      4285 1.41000E+00-9.63150E-03-9.53000E-03
 -1      4287 1.41000E+00-9.42850E-03-9.53000E-03
 -1      4288 1.41000E+00-9.53000E-03-9.63150E-03
 -1      4290 1.41000E+00-9.53000E-03-9.42850E-03
 -1      4293 0.00000E+00 0.00000E+00 0.00000E+00
 -1      4294 0.00000E+00 0.00000E+00 0.00000E+00
 -1      4295 0.00000E+00 0.00000E+00 0.00000E+00
 -1      4296 0.00000E+00 0.00000E+00 0.00000E+00
 -1      4297 0.00000E+00 0.00000E+00 0.00000E+00
 -1      4298 0.00000E+00 0.00000E+00 0.00000E+00
 -1      4299 1.44000E+00-9.63150E-03-9.53000E-03
 -1      4301 1.44000E+00-9.42850E-03-9.53000E-03
 -1      4302 1.44000E+00-9.53000E-03-9.63150E-03
 -1      4304 1.44000E+00-9.53000E-03-9.42850E-03
 -1      4307 0.00000E+00 0.00000E+00 0.00000E+00
 -1      4308 0.00000E+00 0.00000E+00 0.00000E+00
 -1      4309 0.00000E+00 0.00000E+00 0.00000E+00
 -1      4310 0.00000E+00 0.00000E+00 0.00000E+00
 -1      4311 0.00000E+00 0.00000E+00 0.00000E+00
 -1      4312 0.00000E+00 0.00000E+00 0.00000E+00
 -1      4313 1.47000E+00-9.63150E-03-9.53000E-03
 -1      4315 1.47000E+00-9.42850E-03-9.53000E-03
 -1      4316 1.47000E+00-9.53000E-03-9.63150E-03
 -1      4318 1.47000E+00-9.53000E-03-9.42850E-03
 -1      4321 0.00000E+00 0.00000E+00 0.00000E+00
 -1      4322 0.00000E+00 0.00000E+00 0.00000E+00
 -1      4323 0.00000E+00 0.00000E+00 0.00000E+00
 -1      4324 0.00000E+00 0.00000E+00 0.00000E+00
 -1      4325 0.00000E+00 0.00000E+00 0.00000E+00
 -1      4326 0.00000E+00 0.00000E+00 0.00000E+00
 -1      4327 1.50000E+00-9.63150E-03-9.53000E-03
 -1      4329 1.50000E+00-9.42850E-03-9.53000E-03
 -1      4330 1.50000E+00-9.53000E-03-9.63150E-03
 -1      4332 1.50000E+00-9.53000E-03-9.42850E-03
 -1      4335 0.00000E+00 0.00000E+00 0.00000E+00