
 displacements (vx,vy,vz) for set TIPMARKER and time  0.1000000E+00

         4 -1.023063E-07  1.314371E-10 -1.284982E-10

 displacements (vx,vy,vz) for set TIPMARKER and time  0.2000000E+00

         4 -2.047598E-07  2.629482E-10 -2.569873E-10

 displacements (vx,vy,vz) for set TIPMARKER and time  0.3500000E+00

         4 -3.581123E-07  4.602426E-10 -4.497296E-10

 displacements (vx,vy,vz) for set TIPMARKER and time  0.5750000E+00

         4 -5.885413E-07  7.561713E-10 -7.388612E-10

 displacements (vx,vy,vz) for set TIPMARKER and time  0.9125000E+00

         4 -9.337328E-07  1.199713E-09 -1.172641E-09

 displacements (vx,vy,vz) for set TIPMARKER and time  0.1418750E+01

         4 -1.451883E-06  1.864647E-09 -1.823128E-09

 displacements (vx,vy,vz) for set TIPMARKER and time  0.2178125E+01

         4 -2.228624E-06  2.862571E-09 -2.798445E-09

 displacements (vx,vy,vz) for set TIPMARKER and time  0.2462891E+01

         4 -2.520065E-06  3.237059E-09 -3.164193E-09

 displacements (vx,vy,vz) for set TIPMARKER and time  0.2747656E+01

         4 -2.811244E-06  3.611486E-09 -3.530137E-09

 displacements (vx,vy,vz) for set TIPMARKER and time  0.2854443E+01

         4 -2.920605E-06  3.751834E-09 -3.667422E-09

 displacements (vx,vy,vz) for set TIPMARKER and time  0.2961230E+01

         4 -3.029694E-06  3.892106E-09 -3.804714E-09

 displacements (vx,vy,vz) for set TIPMARKER and time  0.2971242E+01

         4 -3.040258E-06  3.905266E-09 -3.817571E-09

 displacements (vx,vy,vz) for set TIPMARKER and time  0.2981253E+01

         4 -3.049898E-06  3.918395E-09 -3.830462E-09

 displacements (vx,vy,vz) for set TIPMARKER and time  0.2996270E+01

         4 -3.065968E-06  3.938138E-09 -3.849742E-09

 displacements (vx,vy,vz) for set TIPMARKER and time  0.3018795E+01

         4 -1.874554E-06  4.414658E-06  2.838636E-09

 displacements (vx,vy,vz) for set TIPMARKER and time  0.3052584E+01

         4  4.282120E-08  2.504690E-05  1.255972E-08

 displacements (vx,vy,vz) for set TIPMARKER and time  0.3086372E+01

         4  1.965208E-06  6.147970E-05  2.074835E-08

 displacements (vx,vy,vz) for set TIPMARKER and time  0.3120160E+01

         4  3.994476E-06  1.135226E-04  2.642152E-08

 displacements (vx,vy,vz) for set TIPMARKER and time  0.3153948E+01

         4  5.991282E-06  1.809947E-04  3.219586E-08

 displacements (vx,vy,vz) for set TIPMARKER and time  0.3187736E+01

         4  8.074482E-06  2.599761E-04  4.171278E-08

 displacements (vx,vy,vz) for set TIPMARKER and time  0.3221524E+01

         4  1.002910E-05  3.449144E-04  5.507104E-08

 displacements (vx,vy,vz) for set TIPMARKER and time  0.3255312E+01

         4  1.202251E-05  4.401785E-04  7.257987E-08

 displacements (vx,vy,vz) for set TIPMARKER and time  0.3289100E+01

         4  1.399576E-05  5.606565E-04  9.503787E-08

 displacements (vx,vy,vz) for set TIPMARKER and time  0.3322888E+01

         4  1.614526E-05  7.158636E-04  1.203597E-07

 displacements (vx,vy,vz) for set TIPMARKER and time  0.3356676E+01

         4  1.830488E-05  9.064234E-04  1.469221E-07

 displacements (vx,vy,vz) for set TIPMARKER and time  0.3390465E+01

         4  2.062005E-05  1.133556E-03  1.754951E-07

 displacements (vx,vy,vz) for set TIPMARKER and time  0.3424253E+01

         4  2.296092E-05  1.393369E-03  2.084239E-07

 displacements (vx,vy,vz) for set TIPMARKER and time  0.3458041E+01

         4  2.534227E-05  1.674001E-03  2.473019E-07

 displacements (vx,vy,vz) for set TIPMARKER and time  0.3491829E+01

         4  2.764389E-05  1.971026E-03  2.923791E-07

 displacements (vx,vy,vz) for set TIPMARKER and time  0.3525617E+01

         4  3.000059E-05  2.291084E-03  3.446456E-07

 displacements (vx,vy,vz) for set TIPMARKER and time  0.3559405E+01

         4  3.238906E-05  2.641284E-03  4.030044E-07

 displacements (vx,vy,vz) for set TIPMARKER and time  0.3610087E+01

         4  3.615536E-05  3.229877E-03  4.959073E-07

 displacements (vx,vy,vz) for set TIPMARKER and time  0.3660769E+01

         4  4.009911E-05  3.891768E-03  5.943681E-07

 displacements (vx,vy,vz) for set TIPMARKER and time  0.3711452E+01

         4  4.416720E-05  4.604361E-03  7.010881E-07

 displacements (vx,vy,vz) for set TIPMARKER and time  0.3762134E+01

         4  4.816269E-05  5.334921E-03  8.179758E-07

 displacements (vx,vy,vz) for set TIPMARKER and time  0.3812816E+01

         4  5.211016E-05  6.076348E-03  9.448832E-07

 displacements (vx,vy,vz) for set TIPMARKER and time  0.3863498E+01

         4  5.612722E-05  6.840268E-03  1.077266E-06

 displacements (vx,vy,vz) for set TIPMARKER and time  0.3914180E+01

         4  6.024513E-05  7.626056E-03  1.208264E-06

 displacements (vx,vy,vz) for set TIPMARKER and time  0.3964862E+01

         4  6.442882E-05  8.417714E-03  1.336194E-06

 displacements (vx,vy,vz) for set TIPMARKER and time  0.4015545E+01

         4  6.855149E-05  9.184502E-03  1.463593E-06

 displacements (vx,vy,vz) for set TIPMARKER and time  0.4066227E+01

         4  7.249681E-05  9.900328E-03  1.590975E-06

 displacements (vx,vy,vz) for set TIPMARKER and time  0.4116909E+01

         4  7.632359E-05  1.056769E-02  1.715604E-06

 displacements (vx,vy,vz) for set TIPMARKER and time  0.4167591E+01

         4  8.015640E-05  1.119947E-02  1.832214E-06

 displacements (vx,vy,vz) for set TIPMARKER and time  0.4218273E+01

         4  8.398998E-05  1.179292E-02  1.935904E-06

 displacements (vx,vy,vz) for set TIPMARKER and time  0.4294297E+01

         4  8.956889E-05  1.256886E-02  2.070439E-06

 displacements (vx,vy,vz) for set TIPMARKER and time  0.4370320E+01

         4  9.474332E-05  1.317089E-02  2.185832E-06

 displacements (vx,vy,vz) for set TIPMARKER and time  0.4446343E+01

         4  9.960966E-05  1.361605E-02  2.278717E-06

 displacements (vx,vy,vz) for set TIPMARKER and time  0.4522366E+01

         4  1.044210E-04  1.395566E-02  2.342241E-06

 displacements (vx,vy,vz) for set TIPMARKER and time  0.4598389E+01

         4  1.091307E-04  1.419607E-02  2.378888E-06

 displacements (vx,vy,vz) for set TIPMARKER and time  0.4674413E+01

         4  1.135523E-04  1.432833E-02  2.400733E-06

 displacements (vx,vy,vz) for set TIPMARKER and time  0.4750436E+01

         4  1.178159E-04  1.439711E-02  2.414278E-06

 displacements (vx,vy,vz) for set TIPMARKER and time  0.4826459E+01

         4  1.221717E-04  1.447587E-02  2.417634E-06

 displacements (vx,vy,vz) for set TIPMARKER and time  0.4902482E+01

         4  1.266898E-04  1.460251E-02  2.416218E-06

 displacements (vx,vy,vz) for set TIPMARKER and time  0.4978506E+01

         4  1.312104E-04  1.477781E-02  2.423957E-06

 displacements (vx,vy,vz) for set TIPMARKER and time  0.5054529E+01

         4  1.357719E-04  1.503119E-02  2.449229E-06

 displacements (vx,vy,vz) for set TIPMARKER and time  0.5130552E+01

         4  1.406262E-04  1.542362E-02  2.491103E-06

 displacements (vx,vy,vz) for set TIPMARKER and time  0.5206575E+01

         4  1.458270E-04  1.597596E-02  2.550048E-06

 displacements (vx,vy,vz) for set TIPMARKER and time  0.5282599E+01

         4  1.511956E-04  1.666233E-02  2.634298E-06

 displacements (vx,vy,vz) for set TIPMARKER and time  0.5358622E+01

         4  1.566736E-04  1.746842E-02  2.748431E-06

 displacements (vx,vy,vz) for set TIPMARKER and time  0.5434645E+01

         4  1.623967E-04  1.840782E-02  2.885675E-06

 displacements (vx,vy,vz) for set TIPMARKER and time  0.5510668E+01

         4  1.684158E-04  1.947044E-02  3.038988E-06

 displacements (vx,vy,vz) for set TIPMARKER and time  0.5586692E+01

         4  1.745130E-04  2.059689E-02  3.208232E-06

 displacements (vx,vy,vz) for set TIPMARKER and time  0.5662715E+01

         4  1.805342E-04  2.173361E-02  3.392394E-06

 displacements (vx,vy,vz) for set TIPMARKER and time  0.5738738E+01

         4  1.865573E-04  2.286516E-02  3.581635E-06

 displacements (vx,vy,vz) for set TIPMARKER and time  0.5814761E+01

         4  1.926209E-04  2.396968E-02  3.764059E-06

 displacements (vx,vy,vz) for set TIPMARKER and time  0.5890785E+01

         4  1.985483E-04  2.499071E-02  3.936156E-06

 displacements (vx,vy,vz) for set TIPMARKER and time  0.5966808E+01

         4  2.041732E-04  2.587749E-02  4.097226E-06

 displacements (vx,vy,vz) for set TIPMARKER and time  0.6042831E+01

         4  2.095551E-04  2.662463E-02  4.240217E-06

 displacements (vx,vy,vz) for set TIPMARKER and time  0.6118854E+01

         4  2.148081E-04  2.724206E-02  4.356641E-06

 displacements (vx,vy,vz) for set TIPMARKER and time  0.6194878E+01

         4  2.198426E-04  2.771389E-02  4.445959E-06

 displacements (vx,vy,vz) for set TIPMARKER and time  0.6308912E+01

         4  2.268222E-04  2.814108E-02  4.539097E-06

 displacements (vx,vy,vz) for set TIPMARKER and time  0.6422947E+01

         4  2.334167E-04  2.833181E-02  4.585766E-06

 displacements (vx,vy,vz) for set TIPMARKER and time  0.6536982E+01

         4  2.399398E-04  2.841995E-02  4.593447E-06

 displacements (vx,vy,vz) for set TIPMARKER and time  0.6651017E+01

         4  2.463884E-04  2.849931E-02  4.588326E-06

 displacements (vx,vy,vz) for set TIPMARKER and time  0.6765052E+01

         4  2.529781E-04  2.870063E-02  4.594035E-06

 displacements (vx,vy,vz) for set TIPMARKER and time  0.6879087E+01

         4  2.600806E-04  2.916475E-02  4.623750E-06

 displacements (vx,vy,vz) for set TIPMARKER and time  0.6993122E+01

         4  2.676733E-04  2.993601E-02  4.696289E-06

 displacements (vx,vy,vz) for set TIPMARKER and time  0.7107157E+01

         4  2.756775E-04  3.101209E-02  4.826239E-06

 displacements (vx,vy,vz) for set TIPMARKER and time  0.7221191E+01

         4  2.842117E-04  3.238488E-02  5.009297E-06

 displacements (vx,vy,vz) for set TIPMARKER and time  0.7335226E+01

         4  2.931107E-04  3.396296E-02  5.236851E-06

 displacements (vx,vy,vz) for set TIPMARKER and time  0.7449261E+01

         4  3.020233E-04  3.559770E-02  5.500541E-06

 displacements (vx,vy,vz) for set TIPMARKER and time  0.7563296E+01

         4  3.108409E-04  3.717188E-02  5.778562E-06

 displacements (vx,vy,vz) for set TIPMARKER and time  0.7677331E+01

         4  3.194310E-04  3.856996E-02  6.045439E-06

 displacements (vx,vy,vz) for set TIPMARKER and time  0.7791366E+01

         4  3.274890E-04  3.966879E-02  6.285574E-06

 displacements (vx,vy,vz) for set TIPMARKER and time  0.7905401E+01

         4  3.349617E-04  4.042293E-02  6.483706E-06

 displacements (vx,vy,vz) for set TIPMARKER and time  0.8019436E+01

         4  3.419838E-04  4.086011E-02  6.625502E-06

 displacements (vx,vy,vz) for set TIPMARKER and time  0.8133470E+01

         4  3.485557E-04  4.102595E-02  6.711479E-06

 displacements (vx,vy,vz) for set TIPMARKER and time  0.8247505E+01

         4  3.548037E-04  4.102059E-02  6.751437E-06

 displacements (vx,vy,vz) for set TIPMARKER and time  0.8361540E+01

         4  3.610671E-04  4.100055E-02  6.755457E-06

 displacements (vx,vy,vz) for set TIPMARKER and time  0.8475575E+01

         4  3.675376E-04  4.109963E-02  6.742303E-06

 displacements (vx,vy,vz) for set TIPMARKER and time  0.8589610E+01

         4  3.743127E-04  4.142074E-02  6.737625E-06

 displacements (vx,vy,vz) for set TIPMARKER and time  0.8703645E+01

         4  3.816030E-04  4.205657E-02  6.760527E-06

 displacements (vx,vy,vz) for set TIPMARKER and time  0.8817680E+01

         4  3.894758E-04  4.303556E-02  6.825774E-06

 displacements (vx,vy,vz) for set TIPMARKER and time  0.8931714E+01

         4  3.977712E-04  4.430418E-02  6.947227E-06

 displacements (vx,vy,vz) for set TIPMARKER and time  0.9045749E+01

         4  4.063778E-04  4.577833E-02  7.127704E-06

 displacements (vx,vy,vz) for set TIPMARKER and time  0.9159784E+01

         4  4.151596E-04  4.734158E-02  7.358148E-06

 displacements (vx,vy,vz) for set TIPMARKER and time  0.9273819E+01

         4  4.238102E-04  4.883608E-02  7.626552E-06

 displacements (vx,vy,vz) for set TIPMARKER and time  0.9387854E+01

         4  4.320981E-04  5.012333E-02  7.915320E-06

 displacements (vx,vy,vz) for set TIPMARKER and time  0.9501889E+01

         4  4.399436E-04  5.111549E-02  8.199349E-06

 displacements (vx,vy,vz) for set TIPMARKER and time  0.9615924E+01

         4  4.472370E-04  5.175787E-02  8.456316E-06

 displacements (vx,vy,vz) for set TIPMARKER and time  0.9729959E+01

         4  4.539496E-04  5.205526E-02  8.669810E-06

 displacements (vx,vy,vz) for set TIPMARKER and time  0.9843993E+01

         4  4.602645E-04  5.209307E-02  8.825724E-06

 displacements (vx,vy,vz) for set TIPMARKER and time  0.9958028E+01

         4  4.663808E-04  5.199407E-02  8.918227E-06

 displacements (vx,vy,vz) for set TIPMARKER and time  0.1007206E+02

         4  4.724673E-04  5.189417E-02  8.954132E-06

 displacements (vx,vy,vz) for set TIPMARKER and time  0.1018610E+02

         4  4.787884E-04  5.194479E-02  8.946758E-06

 displacements (vx,vy,vz) for set TIPMARKER and time  0.1030013E+02

         4  4.855658E-04  5.226953E-02  8.914492E-06

 displacements (vx,vy,vz) for set TIPMARKER and time  0.1041417E+02

         4  4.928554E-04  5.292738E-02  8.883111E-06

 displacements (vx,vy,vz) for set TIPMARKER and time  0.1052820E+02

         4  5.006599E-04  5.392348E-02  8.878706E-06

 displacements (vx,vy,vz) for set TIPMARKER and time  0.1069925E+02

         4  5.131296E-04  5.589438E-02  8.966480E-06

 displacements (vx,vy,vz) for set TIPMARKER and time  0.1087031E+02

         4  5.259110E-04  5.807628E-02  9.198062E-06

 displacements (vx,vy,vz) for set TIPMARKER and time  0.1104136E+02

         4  5.382529E-04  5.999315E-02  9.570571E-06

 displacements (vx,vy,vz) for set TIPMARKER and time  0.1121241E+02

         4  5.496037E-04  6.127218E-02  1.003223E-05

 displacements (vx,vy,vz) for set TIPMARKER and time  0.1138346E+02

         4  5.597276E-04  6.177860E-02  1.050323E-05

 displacements (vx,vy,vz) for set TIPMARKER and time  0.1155452E+02

         4  5.689291E-04  6.169580E-02  1.089602E-05

 displacements (vx,vy,vz) for set TIPMARKER and time  0.1172557E+02

         4  5.778716E-04  6.144256E-02  1.114274E-05

 displacements (vx,vy,vz) for set TIPMARKER and time  0.1189662E+02

         4  5.872750E-04  6.149692E-02  1.122385E-05

 displacements (vx,vy,vz) for set TIPMARKER and time  0.1206767E+02

         4  5.977183E-04  6.221765E-02  1.117271E-05

 displacements (vx,vy,vz) for set TIPMARKER and time  0.1223873E+02

         4  6.093131E-04  6.368138E-02  1.106831E-05

 displacements (vx,vy,vz) for set TIPMARKER and time  0.1240978E+02

         4  6.216691E-04  6.565066E-02  1.101332E-05

 displacements (vx,vy,vz) for set TIPMARKER and time  0.1258083E+02

         4  6.341077E-04  6.767764E-02  1.109602E-05

 displacements (vx,vy,vz) for set TIPMARKER and time  0.1275188E+02

         4  6.458680E-04  6.927511E-02  1.136216E-05

 displacements (vx,vy,vz) for set TIPMARKER and time  0.1292293E+02

         4  6.564703E-04  7.013055E-02  1.179857E-05

 displacements (vx,vy,vz) for set TIPMARKER and time  0.1309399E+02

         4  6.659379E-04  7.024538E-02  1.233202E-05

 displacements (vx,vy,vz) for set TIPMARKER and time  0.1326504E+02

         4  6.747317E-04  6.992761E-02  1.285462E-05

 displacements (vx,vy,vz) for set TIPMARKER and time  0.1343609E+02

         4  6.836136E-04  6.967120E-02  1.325889E-05

 displacements (vx,vy,vz) for set TIPMARKER and time  0.1360714E+02

         4  6.933071E-04  6.994184E-02  1.347334E-05

 displacements (vx,vy,vz) for set TIPMARKER and time  0.1377820E+02

         4  7.041519E-04  7.097091E-02  1.349127E-05

 displacements (vx,vy,vz) for set TIPMARKER and time  0.1394925E+02

         4  7.160028E-04  7.266246E-02  1.337357E-05

 displacements (vx,vy,vz) for set TIPMARKER and time  0.1412030E+02

         4  7.282569E-04  7.462524E-02  1.322804E-05

 displacements (vx,vy,vz) for set TIPMARKER and time  0.1429135E+02

         4  7.401119E-04  7.633928E-02  1.317438E-05

 displacements (vx,vy,vz) for set TIPMARKER and time  0.1446241E+02

         4  7.509533E-04  7.739030E-02  1.330094E-05

 displacements (vx,vy,vz) for set TIPMARKER and time  0.1463346E+02

         4  7.605903E-04  7.765007E-02  1.363436E-05

 displacements (vx,vy,vz) for set TIPMARKER and time  0.1480451E+02

         4  7.693559E-04  7.733966E-02  1.413155E-05

 displacements (vx,vy,vz) for set TIPMARKER and time  0.1497556E+02

         4  7.779787E-04  7.693513E-02  1.469331E-05

 displacements (vx,vy,vz) for set TIPMARKER and time  0.1514661E+02

         4  7.872291E-04  7.694906E-02  1.519993E-05

 displacements (vx,vy,vz) for set TIPMARKER and time  0.1531767E+02

         4  7.975940E-04  7.770413E-02  1.555368E-05

 displacements (vx,vy,vz) for set TIPMARKER and time  0.1548872E+02

         4  8.090523E-04  7.918627E-02  1.571108E-05

 displacements (vx,vy,vz) for set TIPMARKER and time  0.1565977E+02

         4  8.210613E-04  8.104449E-02  1.569706E-05

 displacements (vx,vy,vz) for set TIPMARKER and time  0.1583082E+02

         4  8.328287E-04  8.275120E-02  1.559296E-05

 displacements (vx,vy,vz) for set TIPMARKER and time  0.1600188E+02

         4  8.436638E-04  8.384103E-02  1.550455E-05

 displacements (vx,vy,vz) for set TIPMARKER and time  0.1617293E+02

         4  8.532893E-04  8.412710E-02  1.552549E-05

 displacements (vx,vy,vz) for set TIPMARKER and time  0.1634398E+02

         4  8.619886E-04  8.379449E-02  1.570673E-05

 displacements (vx,vy,vz) for set TIPMARKER and time  0.1651503E+02

         4  8.704617E-04  8.331301E-02  1.604352E-05

 displacements (vx,vy,vz) for set TIPMARKER and time  0.1668609E+02

         4  8.795067E-04  8.321884E-02  1.648349E-05

 displacements (vx,vy,vz) for set TIPMARKER and time  0.1685714E+02

         4  8.896542E-04  8.386537E-02  1.694869E-05

 displacements (vx,vy,vz) for set TIPMARKER and time  0.1702819E+02

         4  9.009203E-04  8.525886E-02  1.736387E-05

 displacements (vx,vy,vz) for set TIPMARKER and time  0.1719924E+02

         4  9.127478E-04  8.704616E-02  1.768003E-05

 displacements (vx,vy,vz) for set TIPMARKER and time  0.1745582E+02

         4  9.297173E-04  8.924060E-02  1.795340E-05

 displacements (vx,vy,vz) for set TIPMARKER and time  0.1771240E+02

         4  9.445095E-04  8.995451E-02  1.805482E-05

 displacements (vx,vy,vz) for set TIPMARKER and time  0.1796898E+02

         4  9.574151E-04  8.939396E-02  1.810781E-05

 displacements (vx,vy,vz) for set TIPMARKER and time  0.1822556E+02

         4  9.704669E-04  8.894342E-02  1.822835E-05

 displacements (vx,vy,vz) for set TIPMARKER and time  0.1848213E+02

         4  9.855420E-04  8.986734E-02  1.849543E-05

 displacements (vx,vy,vz) for set TIPMARKER and time  0.1873871E+02

         4  1.002524E-03  9.210870E-02  1.894019E-05

 displacements (vx,vy,vz) for set TIPMARKER and time  0.1899529E+02

         4  1.019492E-03  9.435493E-02  1.952938E-05

 displacements (vx,vy,vz) for set TIPMARKER and time  0.1925187E+02

         4  1.034512E-03  9.527772E-02  2.014876E-05

 displacements (vx,vy,vz) for set TIPMARKER and time  0.1950845E+02

         4  1.047500E-03  9.481032E-02  2.062778E-05

 displacements (vx,vy,vz) for set TIPMARKER and time  0.1976503E+02

         4  1.060295E-03  9.421186E-02  2.083443E-05

 displacements (vx,vy,vz) for set TIPMARKER and time  0.2002161E+02

         4  1.074863E-03  9.484385E-02  2.078988E-05

 displacements (vx,vy,vz) for set TIPMARKER and time  0.2027818E+02

         4  1.091428E-03  9.685961E-02  2.070036E-05

 displacements (vx,vy,vz) for set TIPMARKER and time  0.2053476E+02

         4  1.108217E-03  9.904953E-02  2.084356E-05

 displacements (vx,vy,vz) for set TIPMARKER and time  0.2079134E+02

         4  1.123245E-03  1.000299E-01  2.136951E-05

 displacements (vx,vy,vz) for set TIPMARKER and time  0.2104792E+02

         4  1.136249E-03  9.960329E-02  2.216958E-05

 displacements (vx,vy,vz) for set TIPMARKER and time  0.2130450E+02

         4  1.148909E-03  9.894685E-02  2.293090E-05

 displacements (vx,vy,vz) for set TIPMARKER and time  0.2156108E+02

         4  1.163228E-03  9.944842E-02  2.335648E-05

 displacements (vx,vy,vz) for set TIPMARKER and time  0.2181765E+02

         4  1.179499E-03  1.013230E-01  2.338471E-05

 displacements (vx,vy,vz) for set TIPMARKER and time  0.2207423E+02

         4  1.196042E-03  1.034047E-01  2.323027E-05

 displacements (vx,vy,vz) for set TIPMARKER and time  0.2233081E+02

         4  1.210909E-03  1.043181E-01  2.321631E-05

 displacements (vx,vy,vz) for set TIPMARKER and time  0.2258739E+02

         4  1.223821E-03  1.038610E-01  2.353834E-05

 displacements (vx,vy,vz) for set TIPMARKER and time  0.2284397E+02

         4  1.236446E-03  1.032064E-01  2.414929E-05

 displacements (vx,vy,vz) for set TIPMARKER and time  0.2310055E+02

         4  1.250700E-03  1.037067E-01  2.483650E-05

 displacements (vx,vy,vz) for set TIPMARKER and time  0.2335713E+02

         4  1.266803E-03  1.055215E-01  2.539787E-05

 displacements (vx,vy,vz) for set TIPMARKER and time  0.2361370E+02

         4  1.283058E-03  1.074589E-01  2.576127E-05

 displacements (vx,vy,vz) for set TIPMARKER and time  0.2387028E+02

         4  1.297617E-03  1.082011E-01  2.596940E-05

 displacements (vx,vy,vz) for set TIPMARKER and time  0.2412686E+02

         4  1.310370E-03  1.076602E-01  2.609322E-05

 displacements (vx,vy,vz) for set TIPMARKER and time  0.2438344E+02

         4  1.323032E-03  1.070602E-01  2.618787E-05

 displacements (vx,vy,vz) for set TIPMARKER and time  0.2464002E+02

         4  1.337380E-03  1.076674E-01  2.632112E-05

 displacements (vx,vy,vz) for set TIPMARKER and time  0.2489660E+02

         4  1.353449E-03  1.094915E-01  2.659805E-05

 displacements (vx,vy,vz) for set TIPMARKER and time  0.2515317E+02

         4  1.369399E-03  1.112655E-01  2.710605E-05

 displacements (vx,vy,vz) for set TIPMARKER and time  0.2553804E+02

         4  1.390145E-03  1.116907E-01  2.813713E-05

 displacements (vx,vy,vz) for set TIPMARKER and time  0.2592291E+02

         4  1.409082E-03  1.107880E-01  2.893774E-05

 displacements (vx,vy,vz) for set TIPMARKER and time  0.2630778E+02

         4  1.430466E-03  1.116661E-01  2.907862E-05

 displacements (vx,vy,vz) for set TIPMARKER and time  0.2669265E+02

         4  1.454124E-03  1.142059E-01  2.893659E-05

 displacements (vx,vy,vz) for set TIPMARKER and time  0.2707751E+02

         4  1.475833E-03  1.153542E-01  2.928980E-05

 displacements (vx,vy,vz) for set TIPMARKER and time  0.2746238E+02

         4  1.494877E-03  1.145778E-01  3.030095E-05

 displacements (vx,vy,vz) for set TIPMARKER and time  0.2784725E+02

         4  1.515182E-03  1.147236E-01  3.132960E-05

 displacements (vx,vy,vz) for set TIPMARKER and time  0.2823212E+02

         4  1.538212E-03  1.168803E-01  3.181930E-05

 displacements (vx,vy,vz) for set TIPMARKER and time  0.2861698E+02

         4  1.560507E-03  1.185147E-01  3.192396E-05

 displacements (vx,vy,vz) for set TIPMARKER and time  0.2900185E+02

         4  1.579965E-03  1.180825E-01  3.211403E-05

 displacements (vx,vy,vz) for set TIPMARKER and time  0.2938672E+02

         4  1.599555E-03  1.177518E-01  3.258104E-05

 displacements (vx,vy,vz) for set TIPMARKER and time  0.2977159E+02

         4  1.621816E-03  1.194046E-01  3.326356E-05

 displacements (vx,vy,vz) for set TIPMARKER and time  0.3015645E+02

         4  1.644353E-03  1.212816E-01  3.409180E-05

 displacements (vx,vy,vz) for set TIPMARKER and time  0.3054132E+02

         4  1.664311E-03  1.212617E-01  3.487911E-05

 displacements (vx,vy,vz) for set TIPMARKER and time  0.3092619E+02

         4  1.683517E-03  1.206908E-01  3.529178E-05

 displacements (vx,vy,vz) for set TIPMARKER and time  0.3131106E+02

         4  1.705022E-03  1.218375E-01  3.530345E-05

 displacements (vx,vy,vz) for set TIPMARKER and time  0.3169592E+02

         4  1.727538E-03  1.237584E-01  3.544324E-05

 displacements (vx,vy,vz) for set TIPMARKER and time  0.3208079E+02

         4  1.747950E-03  1.241220E-01  3.619080E-05

 displacements (vx,vy,vz) for set TIPMARKER and time  0.3246566E+02

         4  1.767022E-03  1.234904E-01  3.728563E-05

 displacements (vx,vy,vz) for set TIPMARKER and time  0.3285053E+02

         4  1.787867E-03  1.241965E-01  3.805236E-05

 displacements (vx,vy,vz) for set TIPMARKER and time  0.3323540E+02

         4  1.810184E-03  1.260248E-01  3.828814E-05

 displacements (vx,vy,vz) for set TIPMARKER and time  0.3362026E+02

         4  1.830944E-03  1.266964E-01  3.840335E-05

 displacements (vx,vy,vz) for set TIPMARKER and time  0.3400513E+02

         4  1.850041E-03  1.261194E-01  3.876832E-05

 displacements (vx,vy,vz) for set TIPMARKER and time  0.3439000E+02

         4  1.870364E-03  1.264786E-01  3.937443E-05

 displacements (vx,vy,vz) for set TIPMARKER and time  0.3477487E+02

         4  1.892483E-03  1.281714E-01  4.010054E-05

 displacements (vx,vy,vz) for set TIPMARKER and time  0.3515973E+02

         4  1.913438E-03  1.290775E-01  4.089899E-05

 displacements (vx,vy,vz) for set TIPMARKER and time  0.3554460E+02

         4  1.932561E-03  1.285642E-01  4.157521E-05

 displacements (vx,vy,vz) for set TIPMARKER and time  0.3592947E+02

         4  1.952456E-03  1.286260E-01  4.186895E-05

 displacements (vx,vy,vz) for set TIPMARKER and time  0.3631434E+02

         4  1.974271E-03  1.301527E-01  4.193022E-05

 displacements (vx,vy,vz) for set TIPMARKER and time  0.3669920E+02

         4  1.995549E-03  1.312917E-01  4.228649E-05

 displacements (vx,vy,vz) for set TIPMARKER and time  0.3727651E+02

         4  2.024505E-03  1.308518E-01  4.356430E-05

 displacements (vx,vy,vz) for set TIPMARKER and time  0.3785381E+02

         4  2.054848E-03  1.314060E-01  4.467998E-05

 displacements (vx,vy,vz) for set TIPMARKER and time  0.3843111E+02

         4  2.086889E-03  1.333177E-01  4.514021E-05

 displacements (vx,vy,vz) for set TIPMARKER and time  0.3900841E+02

         4  2.116595E-03  1.334442E-01  4.565543E-05

 displacements (vx,vy,vz) for set TIPMARKER and time  0.3958571E+02

         4  2.146091E-03  1.334272E-01  4.651698E-05

 displacements (vx,vy,vz) for set TIPMARKER and time  0.4016301E+02

         4  2.177740E-03  1.351020E-01  4.748705E-05

 displacements (vx,vy,vz) for set TIPMARKER and time  0.4074032E+02

         4  2.208053E-03  1.357618E-01  4.847043E-05

 displacements (vx,vy,vz) for set TIPMARKER and time  0.4131762E+02

         4  2.237138E-03  1.354912E-01  4.917859E-05

 displacements (vx,vy,vz) for set TIPMARKER and time  0.4189492E+02

         4  2.268158E-03  1.367333E-01  4.958623E-05

 displacements (vx,vy,vz) for set TIPMARKER and time  0.4247222E+02

         4  2.298874E-03  1.377813E-01  5.038282E-05

 displacements (vx,vy,vz) for set TIPMARKER and time  0.4304952E+02

         4  2.327936E-03  1.375375E-01  5.160597E-05

 displacements (vx,vy,vz) for set TIPMARKER and time  0.4362682E+02

         4  2.358244E-03  1.382982E-01  5.245512E-05

 displacements (vx,vy,vz) for set TIPMARKER and time  0.4420412E+02

         4  2.389141E-03  1.395372E-01  5.292164E-05

 displacements (vx,vy,vz) for set TIPMARKER and time  0.4478143E+02

         4  2.418373E-03  1.394913E-01  5.361962E-05

 displacements (vx,vy,vz) for set TIPMARKER and time  0.4535873E+02

         4  2.448109E-03  1.398511E-01  5.453571E-05

 displacements (vx,vy,vz) for set TIPMARKER and time  0.4593603E+02

         4  2.478909E-03  1.410786E-01  5.545167E-05

 displacements (vx,vy,vz) for set TIPMARKER and time  0.4651333E+02

         4  2.508423E-03  1.413076E-01  5.634582E-05

 displacements (vx,vy,vz) for set TIPMARKER and time  0.4709063E+02

         4  2.537749E-03  1.413976E-01  5.701211E-05

 displacements (vx,vy,vz) for set TIPMARKER and time  0.4766793E+02

         4  2.568283E-03  1.424700E-01  5.755448E-05

 displacements (vx,vy,vz) for set TIPMARKER and time  0.4824523E+02

         4  2.598062E-03  1.429594E-01  5.845189E-05

 displacements (vx,vy,vz) for set TIPMARKER and time  0.4882254E+02

         4  2.627161E-03  1.429239E-01  5.952717E-05

 displacements (vx,vy,vz) for set TIPMARKER and time  0.4939984E+02

         4  2.657342E-03  1.437649E-01  6.026908E-05

 displacements (vx,vy,vz) for set TIPMARKER and time  0.4997714E+02

         4  2.687288E-03  1.444435E-01  6.086701E-05

 displacements (vx,vy,vz) for set TIPMARKER and time  0.5055444E+02

         4  2.716331E-03  1.444075E-01  6.163831E-05

 displacements (vx,vy,vz) for set TIPMARKER and time  0.5113174E+02

         4  2.746133E-03  1.449989E-01  6.247347E-05

 displacements (vx,vy,vz) for set TIPMARKER and time  0.5170904E+02

         4  2.776314E-03  1.458478E-01  6.327704E-05

 displacements (vx,vy,vz) for set TIPMARKER and time  0.5228635E+02

         4  2.805295E-03  1.458798E-01  6.408943E-05

 displacements (vx,vy,vz) for set TIPMARKER and time  0.5286365E+02

         4  2.834629E-03  1.461424E-01  6.483253E-05

 displacements (vx,vy,vz) for set TIPMARKER and time  0.5344095E+02

         4  2.864803E-03  1.470304E-01  6.552892E-05

 displacements (vx,vy,vz) for set TIPMARKER and time  0.5401825E+02

         4  2.894162E-03  1.473435E-01  6.631452E-05

 displacements (vx,vy,vz) for set TIPMARKER and time  0.5488420E+02

         4  2.937724E-03  1.475378E-01  6.747143E-05

 displacements (vx,vy,vz) for set TIPMARKER and time  0.5575015E+02

         4  2.982198E-03  1.484316E-01  6.859825E-05

 displacements (vx,vy,vz) for set TIPMARKER and time  0.5661611E+02

         4  3.026043E-03  1.488349E-01  6.987914E-05

 displacements (vx,vy,vz) for set TIPMARKER and time  0.5748206E+02

         4  3.069853E-03  1.492590E-01  7.102076E-05

 displacements (vx,vy,vz) for set TIPMARKER and time  0.5834801E+02

         4  3.114079E-03  1.500351E-01  7.205995E-05

 displacements (vx,vy,vz) for set TIPMARKER and time  0.5921396E+02
