
 displacements (vx,vy,vz) for set TIPMARKER and time  0.1000000E+00

         4  2.669327E-06  4.339261E-05  1.493653E-08

 displacements (vx,vy,vz) for set TIPMARKER and time  0.1250000E+00

         4  2.627984E-06  6.372157E-05  1.384625E-08

 displacements (vx,vy,vz) for set TIPMARKER and time  0.1500000E+00

         4  3.186693E-06  7.984010E-05  1.218371E-08

 displacements (vx,vy,vz) for set TIPMARKER and time  0.1875000E+00

         4  4.714692E-06  8.836905E-05  1.109552E-08

 displacements (vx,vy,vz) for set TIPMARKER and time  0.2250000E+00

         4  5.310681E-06  8.037755E-05  1.662013E-08

 displacements (vx,vy,vz) for set TIPMARKER and time  0.2625000E+00

         4  5.648606E-06  6.951067E-05  3.173463E-08

 displacements (vx,vy,vz) for set TIPMARKER and time  0.3187500E+00

         4  8.261936E-06  9.733067E-05  5.840995E-08

 displacements (vx,vy,vz) for set TIPMARKER and time  0.3750000E+00

         4  8.417449E-06  1.859337E-04  5.323458E-08

 displacements (vx,vy,vz) for set TIPMARKER and time  0.4312500E+00

         4  1.089213E-05  2.565487E-04  4.422563E-08

 displacements (vx,vy,vz) for set TIPMARKER and time  0.4875000E+00

         4  1.108814E-05  2.398154E-04  5.301152E-08

 displacements (vx,vy,vz) for set TIPMARKER and time  0.5437500E+00

         4  1.305731E-05  1.963071E-04  9.144055E-08

 displacements (vx,vy,vz) for set TIPMARKER and time  0.6000000E+00

         4  1.456937E-05  2.297623E-04  1.078995E-07

 displacements (vx,vy,vz) for set TIPMARKER and time  0.6562500E+00

         4  1.655398E-05  3.283297E-04  9.095396E-08

 displacements (vx,vy,vz) for set TIPMARKER and time  0.7125000E+00

         4  1.857081E-05  3.738287E-04  7.865855E-08

 displacements (vx,vy,vz) for set TIPMARKER and time  0.7687500E+00

         4  1.924169E-05  3.082385E-04  1.003261E-07

 displacements (vx,vy,vz) for set TIPMARKER and time  0.8250000E+00

         4  2.139729E-05  2.338283E-04  1.348935E-07

 displacements (vx,vy,vz) for set TIPMARKER and time  0.8812500E+00

         4  2.172063E-05  2.613631E-04  1.297213E-07

 displacements (vx,vy,vz) for set TIPMARKER and time  0.9375000E+00

         4  2.457427E-05  3.351130E-04  1.041668E-07

 displacements (vx,vy,vz) for set TIPMARKER and time  0.9937500E+00

         4  2.434988E-05  3.257452E-04  9.232451E-08

 displacements (vx,vy,vz) for set TIPMARKER and time  0.1050000E+01

         4  2.653536E-05  2.239319E-04  1.208253E-07

 displacements (vx,vy,vz) for set TIPMARKER and time  0.1106250E+01

         4  2.692481E-05  1.471778E-04  1.350958E-07

 displacements (vx,vy,vz) for set TIPMARKER and time  0.1162500E+01

         4  2.907557E-05  1.648074E-04  1.182777E-07

 displacements (vx,vy,vz) for set TIPMARKER and time  0.1218750E+01

         4  3.072398E-05  1.997441E-04  9.391064E-08

 displacements (vx,vy,vz) for set TIPMARKER and time  0.1275000E+01

         4  3.226148E-05  1.562148E-04  9.825988E-08

 displacements (vx,vy,vz) for set TIPMARKER and time  0.1331250E+01

         4  3.407959E-05  6.488622E-05  1.193771E-07

 displacements (vx,vy,vz) for set TIPMARKER and time  0.1387500E+01

         4  3.461619E-05  1.919753E-05  1.172023E-07

 displacements (vx,vy,vz) for set TIPMARKER and time  0.1443750E+01

         4  3.701775E-05  3.250419E-05  1.002125E-07

 displacements (vx,vy,vz) for set TIPMARKER and time  0.1500000E+01

         4  3.712739E-05  4.137991E-05  8.947151E-08

 displacements (vx,vy,vz) for set TIPMARKER and time  0.1556250E+01

         4  3.975314E-05  1.229827E-05  1.059551E-07

 displacements (vx,vy,vz) for set TIPMARKER and time  0.1612500E+01

         4  3.975128E-05 -2.018706E-05  1.103680E-07

 displacements (vx,vy,vz) for set TIPMARKER and time  0.1668750E+01

         4  4.188218E-05 -2.309606E-05  1.048631E-07

 displacements (vx,vy,vz) for set TIPMARKER and time  0.1725000E+01

         4  4.279858E-05 -1.308105E-05  1.001641E-07

 displacements (vx,vy,vz) for set TIPMARKER and time  0.1781250E+01

         4  4.486802E-05 -5.441270E-06  1.158485E-07

 displacements (vx,vy,vz) for set TIPMARKER and time  0.1837500E+01

         4  4.677554E-05  1.668659E-05  1.299039E-07

 displacements (vx,vy,vz) for set TIPMARKER and time  0.1893750E+01

         4  4.803274E-05  5.325620E-05  1.258930E-07

 displacements (vx,vy,vz) for set TIPMARKER and time  0.1950000E+01

         4  5.006885E-05  7.173028E-05  1.248802E-07

 displacements (vx,vy,vz) for set TIPMARKER and time  0.2006250E+01

         4  5.047293E-05  6.721022E-05  1.412356E-07

 displacements (vx,vy,vz) for set TIPMARKER and time  0.2062500E+01

         4  5.316699E-05  8.791998E-05  1.687432E-07

 displacements (vx,vy,vz) for set TIPMARKER and time  0.2118750E+01

         4  5.309542E-05  1.605932E-04  1.657917E-07

 displacements (vx,vy,vz) for set TIPMARKER and time  0.2175000E+01

         4  5.563916E-05  2.284219E-04  1.572244E-07

 displacements (vx,vy,vz) for set TIPMARKER and time  0.2231250E+01

         4  5.586323E-05  2.267299E-04  1.640231E-07

 displacements (vx,vy,vz) for set TIPMARKER and time  0.2287500E+01

         4  5.795386E-05  1.942612E-04  1.987986E-07

 displacements (vx,vy,vz) for set TIPMARKER and time  0.2343750E+01

         4  5.938147E-05  2.237371E-04  2.154469E-07

 displacements (vx,vy,vz) for set TIPMARKER and time  0.2400000E+01

         4  6.135248E-05  3.125874E-04  2.014507E-07

 displacements (vx,vy,vz) for set TIPMARKER and time  0.2456250E+01

         4  6.329164E-05  3.558703E-04  1.902581E-07

 displacements (vx,vy,vz) for set TIPMARKER and time  0.2512500E+01

         4  6.405660E-05  3.042460E-04  2.100374E-07

 displacements (vx,vy,vz) for set TIPMARKER and time  0.2568750E+01

         4  6.625127E-05  2.452017E-04  2.421364E-07

 displacements (vx,vy,vz) for set TIPMARKER and time  0.2625000E+01

         4  6.656552E-05  2.717870E-04  2.363532E-07

 displacements (vx,vy,vz) for set TIPMARKER and time  0.2681250E+01

         4  6.931338E-05  3.365385E-04  2.131429E-07

 displacements (vx,vy,vz) for set TIPMARKER and time  0.2737500E+01

         4  6.913069E-05  3.247838E-04  2.032310E-07

 displacements (vx,vy,vz) for set TIPMARKER and time  0.2793750E+01

         4  7.131583E-05  2.326980E-04  2.301354E-07

 displacements (vx,vy,vz) for set TIPMARKER and time  0.2850000E+01

         4  7.183923E-05  1.695252E-04  2.419733E-07

 displacements (vx,vy,vz) for set TIPMARKER and time  0.2906250E+01

         4  7.394887E-05  1.882141E-04  2.241523E-07

 displacements (vx,vy,vz) for set TIPMARKER and time  0.2962500E+01

         4  7.556947E-05  2.119060E-04  2.010478E-07

 displacements (vx,vy,vz) for set TIPMARKER and time  0.3018750E+01

         4  7.702240E-05  1.613715E-04  2.071152E-07

 displacements (vx,vy,vz) for set TIPMARKER and time  0.3103125E+01

         4  7.732874E-05  3.445724E-05  2.198469E-07

 displacements (vx,vy,vz) for set TIPMARKER and time  0.3229688E+01

         4  7.799147E-05  7.252865E-06  1.943695E-07

 displacements (vx,vy,vz) for set TIPMARKER and time  0.3419531E+01

         4  8.485434E-05 -2.876716E-04  1.600579E-07

 displacements (vx,vy,vz) for set TIPMARKER and time  0.3609375E+01

         4  8.297061E-05 -9.207655E-04  1.155442E-07

 displacements (vx,vy,vz) for set TIPMARKER and time  0.3799219E+01

         4  9.255128E-05 -1.233749E-03  3.233423E-08

 displacements (vx,vy,vz) for set TIPMARKER and time  0.3989063E+01

         4  9.156065E-05 -1.361478E-03 -2.156452E-09

 displacements (vx,vy,vz) for set TIPMARKER and time  0.4178906E+01

         4  9.873444E-05 -1.159067E-03  8.298214E-08

 displacements (vx,vy,vz) for set TIPMARKER and time  0.4368750E+01

         4  1.004965E-04 -6.341552E-04  1.369128E-07

 displacements (vx,vy,vz) for set TIPMARKER and time  0.4558594E+01

         4  1.098969E-04 -2.901824E-04  2.294011E-07

 displacements (vx,vy,vz) for set TIPMARKER and time  0.4748438E+01

         4  1.130115E-04  3.960385E-05  2.767371E-07

 displacements (vx,vy,vz) for set TIPMARKER and time  0.4938281E+01

         4  1.198646E-04  2.092292E-04  3.097213E-07

 displacements (vx,vy,vz) for set TIPMARKER and time  0.5128125E+01

         4  1.219152E-04 -8.801226E-05  3.164933E-07

 displacements (vx,vy,vz) for set TIPMARKER and time  0.5317969E+01

         4  1.291505E-04 -5.332861E-04  2.406171E-07

 displacements (vx,vy,vz) for set TIPMARKER and time  0.5507812E+01

         4  1.337741E-04 -1.017750E-03  1.528676E-07

 displacements (vx,vy,vz) for set TIPMARKER and time  0.5697656E+01

         4  1.380046E-04 -1.319869E-03  1.387507E-07

 displacements (vx,vy,vz) for set TIPMARKER and time  0.5887500E+01

         4  1.432315E-04 -1.243054E-03  1.553373E-07

 displacements (vx,vy,vz) for set TIPMARKER and time  0.6077344E+01

         4  1.490258E-04 -1.043261E-03  2.051098E-07

 displacements (vx,vy,vz) for set TIPMARKER and time  0.6267187E+01

         4  1.572651E-04 -6.402769E-04  2.739528E-07

 displacements (vx,vy,vz) for set TIPMARKER and time  0.6457031E+01

         4  1.613265E-04 -1.072135E-04  3.453133E-07

 displacements (vx,vy,vz) for set TIPMARKER and time  0.6646875E+01

         4  1.678811E-04  1.679238E-04  4.340827E-07

 displacements (vx,vy,vz) for set TIPMARKER and time  0.6836719E+01

         4  1.707504E-04  1.363569E-04  4.271577E-07

 displacements (vx,vy,vz) for set TIPMARKER and time  0.7026562E+01

         4  1.793252E-04 -1.992269E-04  3.662097E-07

 displacements (vx,vy,vz) for set TIPMARKER and time  0.7216406E+01

         4  1.791338E-04 -6.693636E-04  2.957876E-07

 displacements (vx,vy,vz) for set TIPMARKER and time  0.7406250E+01

         4  1.857204E-04 -1.019368E-03  2.627244E-07

 displacements (vx,vy,vz) for set TIPMARKER and time  0.7596094E+01

         4  1.850118E-04 -1.276332E-03  2.317145E-07

 displacements (vx,vy,vz) for set TIPMARKER and time  0.7785937E+01

         4  1.944954E-04 -1.288903E-03  2.486972E-07

 displacements (vx,vy,vz) for set TIPMARKER and time  0.7975781E+01

         4  1.945778E-04 -9.243111E-04  2.841705E-07

 displacements (vx,vy,vz) for set TIPMARKER and time  0.8165625E+01

         4  2.023611E-04 -4.185765E-04  4.016520E-07

 displacements (vx,vy,vz) for set TIPMARKER and time  0.8355469E+01

         4  2.035686E-04  7.426017E-06  4.730607E-07

 displacements (vx,vy,vz) for set TIPMARKER and time  0.8545312E+01

         4  2.130158E-04  1.711029E-04  4.908887E-07

 displacements (vx,vy,vz) for set TIPMARKER and time  0.8735156E+01

         4  2.152710E-04  4.884542E-05  4.560570E-07

 displacements (vx,vy,vz) for set TIPMARKER and time  0.8925000E+01

         4  2.211842E-04 -2.307659E-04  4.221491E-07

 displacements (vx,vy,vz) for set TIPMARKER and time  0.9114844E+01

         4  2.233115E-04 -6.776461E-04  3.684445E-07

 displacements (vx,vy,vz) for set TIPMARKER and time  0.9304688E+01

         4  2.302402E-04 -1.139996E-03  3.168256E-07

 displacements (vx,vy,vz) for set TIPMARKER and time  0.9494531E+01

         4  2.353961E-04 -1.318388E-03  2.885649E-07

 displacements (vx,vy,vz) for set TIPMARKER and time  0.9684375E+01

         4  2.405582E-04 -1.148992E-03  3.464432E-07

 displacements (vx,vy,vz) for set TIPMARKER and time  0.9874219E+01

         4  2.460527E-04 -7.435369E-04  4.462858E-07

 displacements (vx,vy,vz) for set TIPMARKER and time  0.1006406E+02

         4  2.524035E-04 -3.045294E-04  5.165335E-07

 displacements (vx,vy,vz) for set TIPMARKER and time  0.1025391E+02

         4  2.605116E-04  2.374352E-05  5.566921E-07

 displacements (vx,vy,vz) for set TIPMARKER and time  0.1044375E+02

         4  2.638240E-04  2.056225E-04  5.669465E-07

 displacements (vx,vy,vz) for set TIPMARKER and time  0.1063359E+02

         4  2.699438E-04  9.986619E-05  5.595548E-07

 displacements (vx,vy,vz) for set TIPMARKER and time  0.1082344E+02

         4  2.720343E-04 -3.274084E-04  4.907045E-07

 displacements (vx,vy,vz) for set TIPMARKER and time  0.1101328E+02

         4  2.802979E-04 -8.326367E-04  4.128590E-07

 displacements (vx,vy,vz) for set TIPMARKER and time  0.1120313E+02

         4  2.804466E-04 -1.165124E-03  3.690767E-07

 displacements (vx,vy,vz) for set TIPMARKER and time  0.1139297E+02

         4  2.873737E-04 -1.216663E-03  4.175672E-07

 displacements (vx,vy,vz) for set TIPMARKER and time  0.1158281E+02

         4  2.874375E-04 -1.033354E-03  4.662403E-07

 displacements (vx,vy,vz) for set TIPMARKER and time  0.1177266E+02

         4  2.975478E-04 -6.875478E-04  5.362743E-07

 displacements (vx,vy,vz) for set TIPMARKER and time  0.1196250E+02

         4  2.976588E-04 -2.173220E-04  5.838184E-07

 displacements (vx,vy,vz) for set TIPMARKER and time  0.1215234E+02

         4  3.053613E-04  1.786089E-04  6.493613E-07

 displacements (vx,vy,vz) for set TIPMARKER and time  0.1234219E+02

         4  3.059237E-04  2.494612E-04  6.408848E-07

 displacements (vx,vy,vz) for set TIPMARKER and time  0.1253203E+02

         4  3.146112E-04 -1.739075E-05  5.801974E-07

 displacements (vx,vy,vz) for set TIPMARKER and time  0.1272188E+02

         4  3.164313E-04 -4.430535E-04  4.916237E-07

 displacements (vx,vy,vz) for set TIPMARKER and time  0.1291172E+02

         4  3.220680E-04 -8.413919E-04  4.650424E-07

 displacements (vx,vy,vz) for set TIPMARKER and time  0.1310156E+02

         4  3.244563E-04 -1.123218E-03  4.657056E-07

 displacements (vx,vy,vz) for set TIPMARKER and time  0.1329141E+02

         4  3.320301E-04 -1.215840E-03  4.934086E-07

 displacements (vx,vy,vz) for set TIPMARKER and time  0.1348125E+02

         4  3.377423E-04 -9.979237E-04  5.443168E-07

 displacements (vx,vy,vz) for set TIPMARKER and time  0.1367109E+02

         4  3.434590E-04 -5.153822E-04  6.368147E-07

 displacements (vx,vy,vz) for set TIPMARKER and time  0.1386094E+02

         4  3.490486E-04 -3.876177E-05  7.190886E-07

 displacements (vx,vy,vz) for set TIPMARKER and time  0.1405078E+02

         4  3.550298E-04  2.035982E-04  7.272056E-07

 displacements (vx,vy,vz) for set TIPMARKER and time  0.1424063E+02

         4  3.625855E-04  1.754583E-04  6.792975E-07

 displacements (vx,vy,vz) for set TIPMARKER and time  0.1443047E+02

         4  3.651845E-04 -5.443455E-05  6.201763E-07

 displacements (vx,vy,vz) for set TIPMARKER and time  0.1462031E+02

         4  3.708172E-04 -4.404435E-04  5.862413E-07

 displacements (vx,vy,vz) for set TIPMARKER and time  0.1481016E+02

         4  3.728847E-04 -9.015496E-04  5.427946E-07

 displacements (vx,vy,vz) for set TIPMARKER and time  0.1500000E+02

         4  3.814170E-04 -1.206709E-03  5.373198E-07

 displacements (vx,vy,vz) for set TIPMARKER and time  0.1518984E+02

         4  3.822052E-04 -1.157481E-03  5.765289E-07

 displacements (vx,vy,vz) for set TIPMARKER and time  0.1537969E+02

         4  3.897762E-04 -8.123235E-04  6.862153E-07

 displacements (vx,vy,vz) for set TIPMARKER and time  0.1556953E+02

         4  3.902121E-04 -3.816773E-04  7.507482E-07

 displacements (vx,vy,vz) for set TIPMARKER and time  0.1575938E+02

         4  4.003698E-04 -1.502962E-05  7.795640E-07

 displacements (vx,vy,vz) for set TIPMARKER and time  0.1594922E+02

         4  4.000649E-04  2.217325E-04  7.501959E-07

 displacements (vx,vy,vz) for set TIPMARKER and time  0.1613906E+02

         4  4.071056E-04  2.308835E-04  7.336504E-07

 displacements (vx,vy,vz) for set TIPMARKER and time  0.1632891E+02

         4  4.070522E-04 -7.570328E-05  6.696264E-07

 displacements (vx,vy,vz) for set TIPMARKER and time  0.1651875E+02

         4  4.153209E-04 -5.777737E-04  6.067449E-07

 displacements (vx,vy,vz) for set TIPMARKER and time  0.1670859E+02

         4  4.171451E-04 -9.891813E-04  5.669519E-07

 displacements (vx,vy,vz) for set TIPMARKER and time  0.1689844E+02

         4  4.231983E-04 -1.133799E-03  6.200890E-07

 displacements (vx,vy,vz) for set TIPMARKER and time  0.1708828E+02

         4  4.261747E-04 -1.032513E-03  6.999055E-07

 displacements (vx,vy,vz) for set TIPMARKER and time  0.1727813E+02

         4  4.343656E-04 -7.516482E-04  7.701300E-07

 displacements (vx,vy,vz) for set TIPMARKER and time  0.1746797E+02

         4  4.403930E-04 -3.281776E-04  8.110143E-07

 displacements (vx,vy,vz) for set TIPMARKER and time  0.1765781E+02

         4  4.460180E-04  1.114824E-04  8.451177E-07

 displacements (vx,vy,vz) for set TIPMARKER and time  0.1784766E+02

         4  4.511667E-04  3.222567E-04  8.428552E-07

 displacements (vx,vy,vz) for set TIPMARKER and time  0.1803750E+02

         4  4.564872E-04  1.717856E-04  7.777291E-07

 displacements (vx,vy,vz) for set TIPMARKER and time  0.1822734E+02

         4  4.634350E-04 -2.135867E-04  6.968867E-07

 displacements (vx,vy,vz) for set TIPMARKER and time  0.1841719E+02

         4  4.657410E-04 -6.226188E-04  6.584000E-07

 displacements (vx,vy,vz) for set TIPMARKER and time  0.1860703E+02

         4  4.714473E-04 -9.460761E-04  6.913228E-07

 displacements (vx,vy,vz) for set TIPMARKER and time  0.1879688E+02

         4  4.739837E-04 -1.120749E-03  7.312273E-07

 displacements (vx,vy,vz) for set TIPMARKER and time  0.1898672E+02

         4  4.831453E-04 -1.033823E-03  7.914317E-07

 displacements (vx,vy,vz) for set TIPMARKER and time  0.1917656E+02

         4  4.844758E-04 -6.445012E-04  8.516799E-07

 displacements (vx,vy,vz) for set TIPMARKER and time  0.1936641E+02

         4  4.922997E-04 -1.404350E-04  9.275269E-07

 displacements (vx,vy,vz) for set TIPMARKER and time  0.1955625E+02

         4  4.925781E-04  1.995977E-04  9.185962E-07

 displacements (vx,vy,vz) for set TIPMARKER and time  0.1974609E+02

         4  5.022243E-04  2.650281E-04  8.644523E-07

 displacements (vx,vy,vz) for set TIPMARKER and time  0.1993594E+02

         4  5.012614E-04  1.117927E-04  7.765567E-07

 displacements (vx,vy,vz) for set TIPMARKER and time  0.2012578E+02

         4  5.077434E-04 -2.075584E-04  7.512322E-07

 displacements (vx,vy,vz) for set TIPMARKER and time  0.2031563E+02

         4  5.074513E-04 -6.468504E-04  7.307100E-07

 displacements (vx,vy,vz) for set TIPMARKER and time  0.2050547E+02

         4  5.158982E-04 -1.035005E-03  7.455142E-07

 displacements (vx,vy,vz) for set TIPMARKER and time  0.2069531E+02

         4  5.182057E-04 -1.133965E-03  7.855448E-07

 displacements (vx,vy,vz) for set TIPMARKER and time  0.2088516E+02

         4  5.248914E-04 -8.885674E-04  8.864362E-07

 displacements (vx,vy,vz) for set TIPMARKER and time  0.2107500E+02

         4  5.283541E-04 -4.776425E-04  9.624241E-07

 displacements (vx,vy,vz) for set TIPMARKER and time  0.2126484E+02

         4  5.367088E-04 -8.964097E-05  9.788263E-07

 displacements (vx,vy,vz) for set TIPMARKER and time  0.2145469E+02

         4  5.424961E-04  1.984497E-04  9.377739E-07

 displacements (vx,vy,vz) for set TIPMARKER and time  0.2164453E+02

         4  5.475725E-04  3.114551E-04  8.966125E-07

 displacements (vx,vy,vz) for set TIPMARKER and time  0.2183438E+02

         4  5.520675E-04  1.362371E-04  8.565794E-07

 displacements (vx,vy,vz) for set TIPMARKER and time  0.2202422E+02

         4  5.569038E-04 -3.063515E-04  8.067710E-07

 displacements (vx,vy,vz) for set TIPMARKER and time  0.2221406E+02

         4  5.636891E-04 -7.762875E-04  7.881733E-07

 displacements (vx,vy,vz) for set TIPMARKER and time  0.2240391E+02

         4  5.662475E-04 -1.027311E-03  8.323068E-07

 displacements (vx,vy,vz) for set TIPMARKER and time  0.2259375E+02

         4  5.724875E-04 -1.014823E-03  9.337466E-07

 displacements (vx,vy,vz) for set TIPMARKER and time  0.2278359E+02

         4  5.756392E-04 -8.095961E-04  9.995554E-07

 displacements (vx,vy,vz) for set TIPMARKER and time  0.2297344E+02

         4  5.852365E-04 -4.479457E-04  1.031819E-06

 displacements (vx,vy,vz) for set TIPMARKER and time  0.2316328E+02

         4  5.866555E-04  5.222369E-07  1.022332E-06

 displacements (vx,vy,vz) for set TIPMARKER and time  0.2335313E+02

         4  5.941694E-04  3.258439E-04  1.015526E-06

 displacements (vx,vy,vz) for set TIPMARKER and time  0.2354297E+02

         4  5.938785E-04  3.211648E-04  9.453462E-07

 displacements (vx,vy,vz) for set TIPMARKER and time  0.2373281E+02

         4  6.028927E-04  1.156532E-05  8.770843E-07

 displacements (vx,vy,vz) for set TIPMARKER and time  0.2392266E+02

         4  6.014862E-04 -3.972101E-04  8.277169E-07

 displacements (vx,vy,vz) for set TIPMARKER and time  0.2411250E+02

         4  6.078966E-04 -7.521747E-04  8.773926E-07

 displacements (vx,vy,vz) for set TIPMARKER and time  0.2430234E+02

         4  6.079043E-04 -9.941966E-04  9.369794E-07

 displacements (vx,vy,vz) for set TIPMARKER and time  0.2449219E+02

         4  6.169189E-04 -1.029887E-03  1.003307E-06

 displacements (vx,vy,vz) for set TIPMARKER and time  0.2468203E+02

         4  6.198039E-04 -7.622724E-04  1.044871E-06

 displacements (vx,vy,vz) for set TIPMARKER and time  0.2487188E+02

         4  6.268637E-04 -2.814967E-04  1.096681E-06

 displacements (vx,vy,vz) for set TIPMARKER and time  0.2506172E+02

         4  6.303254E-04  1.411132E-04  1.093223E-06

 displacements (vx,vy,vz) for set TIPMARKER and time  0.2525156E+02

         4  6.383140E-04  3.121582E-04  1.033207E-06

 displacements (vx,vy,vz) for set TIPMARKER and time  0.2544141E+02

         4  6.434903E-04  2.417110E-04  9.504435E-07

 displacements (vx,vy,vz) for set TIPMARKER and time  0.2563125E+02

         4  6.479700E-04 -3.216526E-06  9.196084E-07

 displacements (vx,vy,vz) for set TIPMARKER and time  0.2582109E+02

         4  6.520890E-04 -3.945807E-04  9.375196E-07

 displacements (vx,vy,vz) for set TIPMARKER and time  0.2601094E+02

         4  6.569372E-04 -8.255988E-04  9.688588E-07

 displacements (vx,vy,vz) for set TIPMARKER and time  0.2620078E+02

         4  6.640859E-04 -1.061834E-03  1.020662E-06

 displacements (vx,vy,vz) for set TIPMARKER and time  0.2639063E+02

         4  6.672301E-04 -9.503138E-04  1.095085E-06

 displacements (vx,vy,vz) for set TIPMARKER and time  0.2658047E+02

         4  6.740236E-04 -5.899907E-04  1.173846E-06

 displacements (vx,vy,vz) for set TIPMARKER and time  0.2677031E+02

         4  6.774889E-04 -1.898801E-04  1.173651E-06

 displacements (vx,vy,vz) for set TIPMARKER and time  0.2696016E+02

         4  6.870117E-04  1.371196E-04  1.124103E-06

 displacements (vx,vy,vz) for set TIPMARKER and time  0.2715000E+02

         4  6.880132E-04  3.356314E-04  1.051152E-06

 displacements (vx,vy,vz) for set TIPMARKER and time  0.2733984E+02

         4  6.949092E-04  2.946017E-04  1.025669E-06

 displacements (vx,vy,vz) for set TIPMARKER and time  0.2752969E+02

         4  6.940595E-04 -4.713058E-05  9.892361E-07

 displacements (vx,vy,vz) for set TIPMARKER and time  0.2771953E+02

         4  7.027725E-04 -5.312608E-04  9.929080E-07

 displacements (vx,vy,vz) for set TIPMARKER and time  0.2790938E+02

         4  7.014334E-04 -8.835287E-04  1.023568E-06

 displacements (vx,vy,vz) for set TIPMARKER and time  0.2809922E+02

         4  7.082651E-04 -9.736367E-04  1.127809E-06

 displacements (vx,vy,vz) for set TIPMARKER and time  0.2828906E+02

         4  7.088534E-04 -8.482100E-04  1.193682E-06

 displacements (vx,vy,vz) for set TIPMARKER and time  0.2847891E+02

         4  7.183884E-04 -5.595290E-04  1.215479E-06

 displacements (vx,vy,vz) for set TIPMARKER and time  0.2866875E+02

         4  7.215009E-04 -1.389791E-04  1.180232E-06

 displacements (vx,vy,vz) for set TIPMARKER and time  0.2885859E+02

         4  7.284189E-04  2.626665E-04  1.155123E-06

 displacements (vx,vy,vz) for set TIPMARKER and time  0.2904844E+02

         4  7.314010E-04  4.060952E-04  1.106583E-06

 displacements (vx,vy,vz) for set TIPMARKER and time  0.2923828E+02

         4  7.387756E-04  2.088306E-04  1.052120E-06

 displacements (vx,vy,vz) for set TIPMARKER and time  0.2942813E+02

         4  7.434175E-04 -1.731825E-04  1.023114E-06

 displacements (vx,vy,vz) for set TIPMARKER and time  0.2961797E+02

         4  7.476715E-04 -5.496312E-04  1.071654E-06

 displacements (vx,vy,vz) for set TIPMARKER and time  0.2980781E+02

         4  7.519341E-04 -8.410720E-04  1.161252E-06

 displacements (vx,vy,vz) for set TIPMARKER and time  0.2999766E+02

         4  7.572529E-04 -9.807561E-04  1.226677E-06

 displacements (vx,vy,vz) for set TIPMARKER and time  0.3018750E+02

         4  7.649840E-04 -8.499196E-04  1.260666E-06

 displacements (vx,vy,vz) for set TIPMARKER and time  0.3037734E+02

         4  7.686071E-04 -4.413643E-04  1.272949E-06

 displacements (vx,vy,vz) for set TIPMARKER and time  0.3056719E+02

         4  7.755625E-04  2.854170E-05  1.271132E-06

 displacements (vx,vy,vz) for set TIPMARKER and time  0.3075703E+02

         4  7.788235E-04  3.077664E-04  1.205621E-06

 displacements (vx,vy,vz) for set TIPMARKER and time  0.3094688E+02

         4  7.878307E-04  3.316136E-04  1.133260E-06

 displacements (vx,vy,vz) for set TIPMARKER and time  0.3113672E+02

         4  7.882251E-04  1.651067E-04  1.089451E-06

 displacements (vx,vy,vz) for set TIPMARKER and time  0.3132656E+02

         4  7.946410E-04 -1.584690E-04  1.132690E-06

 displacements (vx,vy,vz) for set TIPMARKER and time  0.3151641E+02

         4  7.936403E-04 -5.886277E-04  1.175800E-06

 displacements (vx,vy,vz) for set TIPMARKER and time  0.3170625E+02

         4  8.025689E-04 -9.323647E-04  1.236491E-06

 displacements (vx,vy,vz) for set TIPMARKER and time  0.3189609E+02

         4  8.017185E-04 -9.717089E-04  1.277866E-06

 displacements (vx,vy,vz) for set TIPMARKER and time  0.3208594E+02

         4  8.091294E-04 -7.006370E-04  1.342093E-06

 displacements (vx,vy,vz) for set TIPMARKER and time  0.3227578E+02

         4  8.101325E-04 -3.089816E-04  1.333889E-06

 displacements (vx,vy,vz) for set TIPMARKER and time  0.3246563E+02

         4  8.197637E-04  4.568165E-05  1.278614E-06

 displacements (vx,vy,vz) for set TIPMARKER and time  0.3265547E+02

         4  8.225898E-04  3.062936E-04  1.195394E-06

 displacements (vx,vy,vz) for set TIPMARKER and time  0.3284531E+02

         4  8.289669E-04  3.856216E-04  1.171400E-06

 displacements (vx,vy,vz) for set TIPMARKER and time  0.3303516E+02

         4  8.313416E-04  1.722543E-04  1.172421E-06

 displacements (vx,vy,vz) for set TIPMARKER and time  0.3322500E+02

         4  8.382963E-04 -2.749169E-04  1.195188E-06

 displacements (vx,vy,vz) for set TIPMARKER and time  0.3341484E+02

         4  8.428423E-04 -7.013760E-04  1.238721E-06

 displacements (vx,vy,vz) for set TIPMARKER and time  0.3360469E+02

         4  8.473786E-04 -8.996986E-04  1.324819E-06

 displacements (vx,vy,vz) for set TIPMARKER and time  0.3379453E+02

         4  8.521623E-04 -8.615303E-04  1.401210E-06

 displacements (vx,vy,vz) for set TIPMARKER and time  0.3398438E+02

         4  8.580486E-04 -6.509239E-04  1.408327E-06

 displacements (vx,vy,vz) for set TIPMARKER and time  0.3417422E+02

         4  8.661409E-04 -2.877327E-04  1.363269E-06

 displacements (vx,vy,vz) for set TIPMARKER and time  0.3436406E+02

         4  8.697924E-04  1.433395E-04  1.308854E-06

 displacements (vx,vy,vz) for set TIPMARKER and time  0.3455391E+02

         4  8.764078E-04  4.173301E-04  1.280444E-06

 displacements (vx,vy,vz) for set TIPMARKER and time  0.3474375E+02

         4  8.791103E-04  3.601789E-04  1.239500E-06

 displacements (vx,vy,vz) for set TIPMARKER and time  0.3493359E+02

         4  8.875355E-04  4.046861E-05  1.232463E-06

 displacements (vx,vy,vz) for set TIPMARKER and time  0.3512344E+02

         4  8.875692E-04 -3.408579E-04  1.267400E-06

 displacements (vx,vy,vz) for set TIPMARKER and time  0.3531328E+02

         4  8.939663E-04 -6.659177E-04  1.369744E-06

 displacements (vx,vy,vz) for set TIPMARKER and time  0.3550313E+02

         4  8.933077E-04 -8.841287E-04  1.427682E-06

 displacements (vx,vy,vz) for set TIPMARKER and time  0.3569297E+02

         4  9.027817E-04 -8.866805E-04  1.452760E-06

 displacements (vx,vy,vz) for set TIPMARKER and time  0.3588281E+02

         4  9.024564E-04 -5.910793E-04  1.423022E-06

 displacements (vx,vy,vz) for set TIPMARKER and time  0.3607266E+02

         4  9.101753E-04 -1.239794E-04  1.410418E-06

 displacements (vx,vy,vz) for set TIPMARKER and time  0.3626250E+02

         4  9.111228E-04  2.474241E-04  1.351653E-06

 displacements (vx,vy,vz) for set TIPMARKER and time  0.3645234E+02

         4  9.203672E-04  3.739065E-04  1.293209E-06

 displacements (vx,vy,vz) for set TIPMARKER and time  0.3664219E+02

         4  9.226022E-04  2.891786E-04  1.255400E-06

 displacements (vx,vy,vz) for set TIPMARKER and time  0.3683203E+02

         4  9.284325E-04  4.275125E-05  1.306322E-06

 displacements (vx,vy,vz) for set TIPMARKER and time  0.3702188E+02

         4  9.304941E-04 -3.479758E-04  1.380329E-06

 displacements (vx,vy,vz) for set TIPMARKER and time  0.3721172E+02

         4  9.375065E-04 -7.541216E-04  1.443697E-06

 displacements (vx,vy,vz) for set TIPMARKER and time  0.3740156E+02

         4  9.424282E-04 -9.379570E-04  1.478466E-06

 displacements (vx,vy,vz) for set TIPMARKER and time  0.3759141E+02

         4  9.475253E-04 -7.885613E-04  1.510218E-06

 displacements (vx,vy,vz) for set TIPMARKER and time  0.3778125E+02

         4  9.528059E-04 -4.354726E-04  1.509339E-06

 displacements (vx,vy,vz) for set TIPMARKER and time  0.3797109E+02

         4  9.589432E-04 -6.735312E-05  1.448642E-06

 displacements (vx,vy,vz) for set TIPMARKER and time  0.3816094E+02

         4  9.669136E-04  2.339787E-04  1.373505E-06

 displacements (vx,vy,vz) for set TIPMARKER and time  0.3835078E+02

         4  9.701351E-04  4.085665E-04  1.339263E-06

 displacements (vx,vy,vz) for set TIPMARKER and time  0.3854063E+02

         4  9.761584E-04  3.331494E-04  1.372659E-06

 displacements (vx,vy,vz) for set TIPMARKER and time  0.3873047E+02
