
 displacements (vx,vy,vz) for set TIPMARKER and time  0.1000000E+00

         4 -3.934519E-07  3.164973E-06  3.505446E-10

 displacements (vx,vy,vz) for set TIPMARKER and time  0.2000000E+00

         4 -5.292794E-07  1.513012E-05  1.833391E-09

 displacements (vx,vy,vz) for set TIPMARKER and time  0.3000000E+00

         4 -4.022388E-07  4.177042E-05  5.400121E-09

 displacements (vx,vy,vz) for set TIPMARKER and time  0.4000000E+00

         4 -6.878622E-09  9.127746E-05  1.277946E-08

 displacements (vx,vy,vz) for set TIPMARKER and time  0.5000000E+00

         4  6.819718E-07  1.752002E-04  2.529380E-08

 displacements (vx,vy,vz) for set TIPMARKER and time  0.6000000E+00

         4  1.679878E-06  3.047532E-04  4.441569E-08

 displacements (vx,vy,vz) for set TIPMARKER and time  0.7000000E+00

         4  2.995740E-06  4.873785E-04  7.206095E-08

 displacements (vx,vy,vz) for set TIPMARKER and time  0.8000000E+00

         4  4.629739E-06  7.292552E-04  1.095144E-07

 displacements (vx,vy,vz) for set TIPMARKER and time  0.9000000E+00

         4  6.599308E-06  1.034969E-03  1.572278E-07

 displacements (vx,vy,vz) for set TIPMARKER and time  0.1000000E+01

         4  8.889697E-06  1.403258E-03  2.153378E-07

 displacements (vx,vy,vz) for set TIPMARKER and time  0.1100000E+01

         4  1.148956E-05  1.828516E-03  2.836535E-07

 displacements (vx,vy,vz) for set TIPMARKER and time  0.1200000E+01

         4  1.438026E-05  2.303875E-03  3.609149E-07

 displacements (vx,vy,vz) for set TIPMARKER and time  0.1300000E+01

         4  1.755090E-05  2.819981E-03  4.452914E-07

 displacements (vx,vy,vz) for set TIPMARKER and time  0.1400000E+01

         4  2.096575E-05  3.364518E-03  5.351473E-07

 displacements (vx,vy,vz) for set TIPMARKER and time  0.1500000E+01

         4  2.460428E-05  3.925878E-03  6.285693E-07

 displacements (vx,vy,vz) for set TIPMARKER and time  0.1600000E+01

         4  2.844571E-05  4.495410E-03  7.234562E-07

 displacements (vx,vy,vz) for set TIPMARKER and time  0.1700000E+01

         4  3.247615E-05  5.065552E-03  8.182498E-07

 displacements (vx,vy,vz) for set TIPMARKER and time  0.1800000E+01

         4  3.667059E-05  5.631130E-03  9.121594E-07

 displacements (vx,vy,vz) for set TIPMARKER and time  0.1900000E+01

         4  4.102982E-05  6.192211E-03  1.004676E-06

 displacements (vx,vy,vz) for set TIPMARKER and time  0.2000000E+01

         4  4.555048E-05  6.752547E-03  1.095785E-06

 displacements (vx,vy,vz) for set TIPMARKER and time  0.2100000E+01

         4  5.023541E-05  7.317528E-03  1.186437E-06

 displacements (vx,vy,vz) for set TIPMARKER and time  0.2200000E+01

         4  5.508334E-05  7.895011E-03  1.277989E-06

 displacements (vx,vy,vz) for set TIPMARKER and time  0.2300000E+01

         4  6.011043E-05  8.495170E-03  1.371772E-06

 displacements (vx,vy,vz) for set TIPMARKER and time  0.2400000E+01

         4  6.531964E-05  9.127052E-03  1.469340E-06

 displacements (vx,vy,vz) for set TIPMARKER and time  0.2500000E+01

         4  7.071257E-05  9.797223E-03  1.572320E-06

 displacements (vx,vy,vz) for set TIPMARKER and time  0.2600000E+01

         4  7.628705E-05  1.051081E-02  1.681763E-06

 displacements (vx,vy,vz) for set TIPMARKER and time  0.2700000E+01

         4  8.204274E-05  1.126986E-02  1.798055E-06

 displacements (vx,vy,vz) for set TIPMARKER and time  0.2800000E+01

         4  8.796078E-05  1.207148E-02  1.921248E-06

 displacements (vx,vy,vz) for set TIPMARKER and time  0.2900000E+01

         4  9.402177E-05  1.290924E-02  2.050779E-06

 displacements (vx,vy,vz) for set TIPMARKER and time  0.3000000E+01

         4  1.002025E-04  1.377464E-02  2.185240E-06

 displacements (vx,vy,vz) for set TIPMARKER and time  0.3100000E+01

         4  1.064778E-04  1.465651E-02  2.322871E-06

 displacements (vx,vy,vz) for set TIPMARKER and time  0.3200000E+01

         4  1.128116E-04  1.554185E-02  2.461842E-06

 displacements (vx,vy,vz) for set TIPMARKER and time  0.3300000E+01

         4  1.191767E-04  1.641877E-02  2.600129E-06

 displacements (vx,vy,vz) for set TIPMARKER and time  0.3400000E+01

         4  1.255480E-04  1.727747E-02  2.735732E-06

 displacements (vx,vy,vz) for set TIPMARKER and time  0.3500000E+01

         4  1.319021E-04  1.810989E-02  2.867222E-06

 displacements (vx,vy,vz) for set TIPMARKER and time  0.3600000E+01

         4  1.382184E-04  1.891140E-02  2.993745E-06

 displacements (vx,vy,vz) for set TIPMARKER and time  0.3700000E+01

         4  1.444897E-04  1.968203E-02  3.114846E-06

 displacements (vx,vy,vz) for set TIPMARKER and time  0.3800000E+01

         4  1.507114E-04  2.042521E-02  3.230729E-06

 displacements (vx,vy,vz) for set TIPMARKER and time  0.3900000E+01

         4  1.568815E-04  2.114675E-02  3.342338E-06

 displacements (vx,vy,vz) for set TIPMARKER and time  0.4000000E+01

         4  1.630027E-04  2.185508E-02  3.450951E-06

 displacements (vx,vy,vz) for set TIPMARKER and time  0.4100000E+01

         4  1.690837E-04  2.256000E-02  3.557963E-06

 displacements (vx,vy,vz) for set TIPMARKER and time  0.4200000E+01

         4  1.751268E-04  2.327013E-02  3.664949E-06

 displacements (vx,vy,vz) for set TIPMARKER and time  0.4300000E+01

         4  1.811319E-04  2.399213E-02  3.773377E-06

 displacements (vx,vy,vz) for set TIPMARKER and time  0.4400000E+01

         4  1.870973E-04  2.473052E-02  3.884182E-06

 displacements (vx,vy,vz) for set TIPMARKER and time  0.4500000E+01

         4  1.930158E-04  2.548610E-02  3.997783E-06

 displacements (vx,vy,vz) for set TIPMARKER and time  0.4600000E+01

         4  1.988698E-04  2.625521E-02  4.114148E-06

 displacements (vx,vy,vz) for set TIPMARKER and time  0.4700000E+01

         4  2.046384E-04  2.703087E-02  4.232577E-06

 displacements (vx,vy,vz) for set TIPMARKER and time  0.4800000E+01

         4  2.102983E-04  2.780359E-02  4.351709E-06

 displacements (vx,vy,vz) for set TIPMARKER and time  0.4900000E+01

         4  2.158210E-04  2.856152E-02  4.469860E-06

 displacements (vx,vy,vz) for set TIPMARKER and time  0.5000000E+01

         4  2.211753E-04  2.929200E-02  4.585180E-06

 displacements (vx,vy,vz) for set TIPMARKER and time  0.5100000E+01

         4  2.263366E-04  2.998394E-02  4.695672E-06

 displacements (vx,vy,vz) for set TIPMARKER and time  0.5200000E+01

         4  2.312815E-04  3.062827E-02  4.799489E-06

 displacements (vx,vy,vz) for set TIPMARKER and time  0.5350000E+01

         4  2.381933E-04  3.149163E-02  4.939500E-06

 displacements (vx,vy,vz) for set TIPMARKER and time  0.5500000E+01

         4  2.445382E-04  3.223021E-02  5.059085E-06

 displacements (vx,vy,vz) for set TIPMARKER and time  0.5650000E+01

         4  2.503206E-04  3.285854E-02  5.158105E-06

 displacements (vx,vy,vz) for set TIPMARKER and time  0.5800000E+01

         4  2.555543E-04  3.340317E-02  5.239605E-06

 displacements (vx,vy,vz) for set TIPMARKER and time  0.5950000E+01

         4  2.602740E-04  3.389806E-02  5.308455E-06

 displacements (vx,vy,vz) for set TIPMARKER and time  0.6100000E+01

         4  2.645142E-04  3.437419E-02  5.369686E-06

 displacements (vx,vy,vz) for set TIPMARKER and time  0.6250000E+01

         4  2.682764E-04  3.484709E-02  5.427855E-06

 displacements (vx,vy,vz) for set TIPMARKER and time  0.6475000E+01

         4  2.727702E-04  3.552956E-02  5.511798E-06

 displacements (vx,vy,vz) for set TIPMARKER and time  0.6700000E+01

         4  2.759457E-04  3.610464E-02  5.585981E-06

 displacements (vx,vy,vz) for set TIPMARKER and time  0.6925000E+01

         4  2.775793E-04  3.645638E-02  5.634720E-06

 displacements (vx,vy,vz) for set TIPMARKER and time  0.7262500E+01

         4  2.763560E-04  3.639358E-02  5.620913E-06

 displacements (vx,vy,vz) for set TIPMARKER and time  0.7768750E+01

         4  2.742220E-04  3.516582E-02  5.397173E-06

 displacements (vx,vy,vz) for set TIPMARKER and time  0.8275000E+01

         4  2.755852E-04  3.324976E-02  5.019030E-06

 displacements (vx,vy,vz) for set TIPMARKER and time  0.8781250E+01

         4  2.807131E-04  3.103914E-02  4.614823E-06

 displacements (vx,vy,vz) for set TIPMARKER and time  0.9287500E+01

         4  2.883573E-04  2.811529E-02  4.184431E-06

 displacements (vx,vy,vz) for set TIPMARKER and time  0.9793750E+01

         4  2.972528E-04  2.415054E-02  3.634346E-06

 displacements (vx,vy,vz) for set TIPMARKER and time  0.1030000E+02

         4  3.073528E-04  1.965761E-02  2.979691E-06

 displacements (vx,vy,vz) for set TIPMARKER and time  0.1080625E+02

         4  3.187927E-04  1.530475E-02  2.357248E-06

 displacements (vx,vy,vz) for set TIPMARKER and time  0.1131250E+02

         4  3.304890E-04  1.104677E-02  1.828329E-06

 displacements (vx,vy,vz) for set TIPMARKER and time  0.1181875E+02

         4  3.409253E-04  6.573044E-03  1.314804E-06

 displacements (vx,vy,vz) for set TIPMARKER and time  0.1232500E+02

         4  3.496609E-04  2.207181E-03  7.787331E-07

 displacements (vx,vy,vz) for set TIPMARKER and time  0.1283125E+02

         4  3.570275E-04 -1.311132E-03  3.225679E-07

 displacements (vx,vy,vz) for set TIPMARKER and time  0.1333750E+02

         4  3.626085E-04 -3.774116E-03  3.726239E-08

 displacements (vx,vy,vz) for set TIPMARKER and time  0.1384375E+02

         4  3.651662E-04 -5.569705E-03 -1.293205E-07

 displacements (vx,vy,vz) for set TIPMARKER and time  0.1435000E+02

         4  3.641237E-04 -6.799944E-03 -2.556091E-07

 displacements (vx,vy,vz) for set TIPMARKER and time  0.1485625E+02

         4  3.607295E-04 -6.990505E-03 -2.927691E-07

 displacements (vx,vy,vz) for set TIPMARKER and time  0.1536250E+02

         4  3.656068E-04 -5.869718E-03 -1.231871E-07

 displacements (vx,vy,vz) for set TIPMARKER and time  0.1586875E+02

         4  3.777752E-04 -3.851422E-03  2.218474E-07

 displacements (vx,vy,vz) for set TIPMARKER and time  0.1637500E+02

         4  3.959208E-04 -1.391375E-03  6.305736E-07

 displacements (vx,vy,vz) for set TIPMARKER and time  0.1688125E+02

         4  4.194556E-04  1.645423E-03  1.079605E-06

 displacements (vx,vy,vz) for set TIPMARKER and time  0.1738750E+02

         4  4.478065E-04  5.527905E-03  1.634208E-06

 displacements (vx,vy,vz) for set TIPMARKER and time  0.1789375E+02

         4  4.792629E-04  9.928382E-03  2.288502E-06

 displacements (vx,vy,vz) for set TIPMARKER and time  0.1840000E+02

         4  5.114531E-04  1.418136E-02  2.931055E-06

 displacements (vx,vy,vz) for set TIPMARKER and time  0.1890625E+02

         4  5.427152E-04  1.807773E-02  3.493530E-06

 displacements (vx,vy,vz) for set TIPMARKER and time  0.1941250E+02

         4  5.721171E-04  2.184732E-02  4.018364E-06

 displacements (vx,vy,vz) for set TIPMARKER and time  0.1991875E+02

         4  5.982935E-04  2.540534E-02  4.532349E-06

 displacements (vx,vy,vz) for set TIPMARKER and time  0.2042500E+02

         4  6.192483E-04  2.819922E-02  4.954703E-06

 displacements (vx,vy,vz) for set TIPMARKER and time  0.2093125E+02

         4  6.335861E-04  2.992620E-02  5.198506E-06

 displacements (vx,vy,vz) for set TIPMARKER and time  0.2143750E+02

         4  6.410603E-04  3.085715E-02  5.286221E-06

 displacements (vx,vy,vz) for set TIPMARKER and time  0.2194375E+02

         4  6.415960E-04  3.120989E-02  5.282234E-06

 displacements (vx,vy,vz) for set TIPMARKER and time  0.2245000E+02

         4  6.391689E-04  3.070258E-02  5.177286E-06

 displacements (vx,vy,vz) for set TIPMARKER and time  0.2295625E+02

         4  6.396059E-04  2.907483E-02  4.912908E-06

 displacements (vx,vy,vz) for set TIPMARKER and time  0.2346250E+02

         4  6.430274E-04  2.659678E-02  4.496353E-06

 displacements (vx,vy,vz) for set TIPMARKER and time  0.2396875E+02

         4  6.495463E-04  2.365402E-02  4.022251E-06

 displacements (vx,vy,vz) for set TIPMARKER and time  0.2447500E+02

         4  6.583806E-04  2.019012E-02  3.535873E-06

 displacements (vx,vy,vz) for set TIPMARKER and time  0.2498125E+02

         4  6.683610E-04  1.600004E-02  2.991509E-06

 displacements (vx,vy,vz) for set TIPMARKER and time  0.2548750E+02

         4  6.789461E-04  1.132786E-02  2.374076E-06

 displacements (vx,vy,vz) for set TIPMARKER and time  0.2599375E+02

         4  6.900384E-04  6.723641E-03  1.766030E-06

 displacements (vx,vy,vz) for set TIPMARKER and time  0.2650000E+02

         4  7.010269E-04  2.432405E-03  1.241336E-06

 displacements (vx,vy,vz) for set TIPMARKER and time  0.2700625E+02

         4  7.107577E-04 -1.648892E-03  7.756906E-07

 displacements (vx,vy,vz) for set TIPMARKER and time  0.2751250E+02

         4  7.184754E-04 -5.424298E-03  3.291820E-07

 displacements (vx,vy,vz) for set TIPMARKER and time  0.2801875E+02

         4  7.241282E-04 -8.438797E-03 -4.977857E-08

 displacements (vx,vy,vz) for set TIPMARKER and time  0.2852500E+02

         4  7.275717E-04 -1.038362E-02 -2.831974E-07

 displacements (vx,vy,vz) for set TIPMARKER and time  0.2903125E+02

         4  7.280989E-04 -1.140394E-02 -3.774056E-07

 displacements (vx,vy,vz) for set TIPMARKER and time  0.2953750E+02

         4  7.251206E-04 -1.169694E-02 -3.924020E-07

 displacements (vx,vy,vz) for set TIPMARKER and time  0.3000000E+02

         4  7.265299E-04 -1.122772E-02 -3.212931E-07
