
 displacements (vx,vy,vz) for set TIPMARKER and time  0.1000000E+00

         4  1.350290E-06  2.606747E-05  8.654788E-09

 displacements (vx,vy,vz) for set TIPMARKER and time  0.2000000E+00

         4  4.583177E-06  1.214064E-04  2.546605E-08

 displacements (vx,vy,vz) for set TIPMARKER and time  0.3000000E+00

         4  9.243531E-06  3.226290E-04  5.609418E-08

 displacements (vx,vy,vz) for set TIPMARKER and time  0.4000000E+00

         4  1.475183E-05  6.723688E-04  1.108907E-07

 displacements (vx,vy,vz) for set TIPMARKER and time  0.5000000E+00

         4  2.051957E-05  1.222635E-03  1.938720E-07

 displacements (vx,vy,vz) for set TIPMARKER and time  0.6000000E+00

         4  2.593490E-05  1.998046E-03  3.068096E-07

 displacements (vx,vy,vz) for set TIPMARKER and time  0.7000000E+00

         4  3.028436E-05  2.964534E-03  4.514484E-07

 displacements (vx,vy,vz) for set TIPMARKER and time  0.8000000E+00

         4  3.302509E-05  4.054301E-03  6.204630E-07

 displacements (vx,vy,vz) for set TIPMARKER and time  0.9000000E+00

         4  3.453090E-05  5.171644E-03  7.986468E-07

 displacements (vx,vy,vz) for set TIPMARKER and time  0.1050000E+01

         4  3.961385E-05  6.533494E-03  1.047638E-06

 displacements (vx,vy,vz) for set TIPMARKER and time  0.1200000E+01

         4  4.558545E-05  7.087022E-03  1.203652E-06

 displacements (vx,vy,vz) for set TIPMARKER and time  0.1350000E+01

         4  5.026583E-05  6.470485E-03  1.181245E-06

 displacements (vx,vy,vz) for set TIPMARKER and time  0.1500000E+01

         4  5.158536E-05  4.576096E-03  9.417105E-07

 displacements (vx,vy,vz) for set TIPMARKER and time  0.1650000E+01

         4  4.845596E-05  1.682159E-03  5.111876E-07

 displacements (vx,vy,vz) for set TIPMARKER and time  0.1800000E+01

         4  4.337343E-05 -1.533195E-03 -2.126421E-08

 displacements (vx,vy,vz) for set TIPMARKER and time  0.1950000E+01

         4  4.331258E-05 -4.193461E-03 -4.984833E-07

 displacements (vx,vy,vz) for set TIPMARKER and time  0.2100000E+01

         4  4.817560E-05 -5.442664E-03 -7.727560E-07

 displacements (vx,vy,vz) for set TIPMARKER and time  0.2250000E+01

         4  5.679065E-05 -4.689784E-03 -7.394500E-07

 displacements (vx,vy,vz) for set TIPMARKER and time  0.2400000E+01

         4  6.689103E-05 -1.883154E-03 -3.634288E-07

 displacements (vx,vy,vz) for set TIPMARKER and time  0.2550000E+01

         4  7.574003E-05  2.432813E-03  2.923342E-07

 displacements (vx,vy,vz) for set TIPMARKER and time  0.2700000E+01

         4  8.397241E-05  7.218665E-03  1.077300E-06

 displacements (vx,vy,vz) for set TIPMARKER and time  0.2850000E+01

         4  9.391831E-05  1.114865E-02  1.794448E-06

 displacements (vx,vy,vz) for set TIPMARKER and time  0.3000000E+01

         4  1.023503E-04  1.300475E-02  2.227979E-06

 displacements (vx,vy,vz) for set TIPMARKER and time  0.3150000E+01

         4  1.063147E-04  1.205481E-02  2.217794E-06

 displacements (vx,vy,vz) for set TIPMARKER and time  0.3300000E+01

         4  1.039679E-04  8.285586E-03  1.723003E-06

 displacements (vx,vy,vz) for set TIPMARKER and time  0.3450000E+01

         4  9.524649E-05  2.498749E-03  8.380564E-07

 displacements (vx,vy,vz) for set TIPMARKER and time  0.3600000E+01

         4  8.614503E-05 -3.844587E-03 -2.119169E-07

 displacements (vx,vy,vz) for set TIPMARKER and time  0.3825000E+01

         4  8.497553E-05 -1.045933E-02 -1.415557E-06

 displacements (vx,vy,vz) for set TIPMARKER and time  0.4050000E+01

         4  9.589831E-05 -1.030553E-02 -1.581022E-06

 displacements (vx,vy,vz) for set TIPMARKER and time  0.4275000E+01

         4  1.123962E-04 -2.817787E-03 -5.080816E-07

 displacements (vx,vy,vz) for set TIPMARKER and time  0.4500000E+01

         4  1.323818E-04  8.247694E-03  1.288790E-06

 displacements (vx,vy,vz) for set TIPMARKER and time  0.4725000E+01

         4  1.536814E-04  1.661273E-02  2.816198E-06

 displacements (vx,vy,vz) for set TIPMARKER and time  0.4950000E+01

         4  1.622626E-04  1.706135E-02  3.125293E-06

 displacements (vx,vy,vz) for set TIPMARKER and time  0.5175000E+01

         4  1.509783E-04  8.691295E-03  1.921777E-06

 displacements (vx,vy,vz) for set TIPMARKER and time  0.5400000E+01

         4  1.333305E-04 -4.223933E-03 -1.665414E-07

 displacements (vx,vy,vz) for set TIPMARKER and time  0.5625000E+01

         4  1.270813E-04 -1.437402E-02 -1.937590E-06

 displacements (vx,vy,vz) for set TIPMARKER and time  0.5850000E+01

         4  1.351580E-04 -1.558099E-02 -2.316720E-06

 displacements (vx,vy,vz) for set TIPMARKER and time  0.6075000E+01

         4  1.525619E-04 -6.571586E-03 -9.879698E-07

 displacements (vx,vy,vz) for set TIPMARKER and time  0.6300000E+01

         4  1.795084E-04  7.986484E-03  1.383405E-06

 displacements (vx,vy,vz) for set TIPMARKER and time  0.6525000E+01

         4  2.069770E-04  1.982991E-02  3.460659E-06

 displacements (vx,vy,vz) for set TIPMARKER and time  0.6750000E+01

         4  2.174888E-04  2.182178E-02  3.982021E-06

 displacements (vx,vy,vz) for set TIPMARKER and time  0.6975000E+01

         4  2.030341E-04  1.228001E-02  2.541314E-06

 displacements (vx,vy,vz) for set TIPMARKER and time  0.7200000E+01

         4  1.817165E-04 -3.792811E-03 -7.962895E-08

 displacements (vx,vy,vz) for set TIPMARKER and time  0.7425000E+01

         4  1.704899E-04 -1.728080E-02 -2.375870E-06

 displacements (vx,vy,vz) for set TIPMARKER and time  0.7650000E+01

         4  1.749964E-04 -2.016744E-02 -2.977016E-06

 displacements (vx,vy,vz) for set TIPMARKER and time  0.7875000E+01

         4  1.920818E-04 -1.033489E-02 -1.449880E-06

 displacements (vx,vy,vz) for set TIPMARKER and time  0.8100000E+01

         4  2.247401E-04  7.010372E-03  1.419906E-06

 displacements (vx,vy,vz) for set TIPMARKER and time  0.8325000E+01

         4  2.576891E-04  2.200874E-02  3.994405E-06

 displacements (vx,vy,vz) for set TIPMARKER and time  0.8550000E+01

         4  2.703426E-04  2.577909E-02  4.732937E-06

 displacements (vx,vy,vz) for set TIPMARKER and time  0.8775000E+01

         4  2.537899E-04  1.574598E-02  3.115335E-06

 displacements (vx,vy,vz) for set TIPMARKER and time  0.9000000E+01

         4  2.299419E-04 -2.723084E-03  4.530833E-08

 displacements (vx,vy,vz) for set TIPMARKER and time  0.9337500E+01

         4  2.131422E-04 -2.270121E-02 -3.331520E-06

 displacements (vx,vy,vz) for set TIPMARKER and time  0.9675000E+01

         4  2.224391E-04 -1.642230E-02 -2.323615E-06

 displacements (vx,vy,vz) for set TIPMARKER and time  0.1001250E+02

         4  2.758699E-04  9.273721E-03  2.061713E-06

 displacements (vx,vy,vz) for set TIPMARKER and time  0.1035000E+02

         4  3.121586E-04  2.623320E-02  4.939312E-06

 displacements (vx,vy,vz) for set TIPMARKER and time  0.1068750E+02

         4  3.005570E-04  1.593357E-02  3.132619E-06

 displacements (vx,vy,vz) for set TIPMARKER and time  0.1102500E+02

         4  2.749032E-04 -1.000075E-02 -1.290133E-06

 displacements (vx,vy,vz) for set TIPMARKER and time  0.1136250E+02

         4  2.573136E-04 -2.312917E-02 -3.429042E-06

 displacements (vx,vy,vz) for set TIPMARKER and time  0.1170000E+02

         4  2.886315E-04 -9.660003E-03 -9.161806E-07

 displacements (vx,vy,vz) for set TIPMARKER and time  0.1203750E+02

         4  3.398483E-04  1.496314E-02  3.371237E-06

 displacements (vx,vy,vz) for set TIPMARKER and time  0.1237500E+02

         4  3.548693E-04  2.390191E-02  4.665767E-06

 displacements (vx,vy,vz) for set TIPMARKER and time  0.1271250E+02

         4  3.459334E-04  8.465662E-03  1.715455E-06

 displacements (vx,vy,vz) for set TIPMARKER and time  0.1305000E+02

         4  3.181518E-04 -1.363395E-02 -2.106440E-06

 displacements (vx,vy,vz) for set TIPMARKER and time  0.1338750E+02

         4  3.159791E-04 -1.880765E-02 -2.584361E-06

 displacements (vx,vy,vz) for set TIPMARKER and time  0.1372500E+02

         4  3.542566E-04 -2.966085E-03  6.369520E-07

 displacements (vx,vy,vz) for set TIPMARKER and time  0.1406250E+02

         4  3.846685E-04  1.582049E-02  3.836437E-06

 displacements (vx,vy,vz) for set TIPMARKER and time  0.1440000E+02

         4  4.030403E-04  1.815475E-02  3.650237E-06

 displacements (vx,vy,vz) for set TIPMARKER and time  0.1473750E+02

         4  3.909143E-04  3.311753E-03  5.216135E-07

 displacements (vx,vy,vz) for set TIPMARKER and time  0.1507500E+02

         4  3.683895E-04 -1.211892E-02 -2.002282E-06

 displacements (vx,vy,vz) for set TIPMARKER and time  0.1541250E+02

         4  3.796362E-04 -1.300597E-02 -1.288112E-06

 displacements (vx,vy,vz) for set TIPMARKER and time  0.1575000E+02

         4  4.039654E-04 -2.879887E-04  1.577512E-06

 displacements (vx,vy,vz) for set TIPMARKER and time  0.1608750E+02

         4  4.361801E-04  1.231556E-02  3.464401E-06

 displacements (vx,vy,vz) for set TIPMARKER and time  0.1642500E+02

         4  4.525583E-04  1.318379E-02  2.575762E-06

 displacements (vx,vy,vz) for set TIPMARKER and time  0.1676250E+02

         4  4.348083E-04  3.042102E-03  1.087838E-07

 displacements (vx,vy,vz) for set TIPMARKER and time  0.1710000E+02

         4  4.290052E-04 -7.847909E-03 -1.242935E-06

 displacements (vx,vy,vz) for set TIPMARKER and time  0.1743750E+02

         4  4.323809E-04 -9.998670E-03 -3.416478E-07

 displacements (vx,vy,vz) for set TIPMARKER and time  0.1777500E+02

         4  4.525731E-04 -2.308778E-03  1.672954E-06

 displacements (vx,vy,vz) for set TIPMARKER and time  0.1811250E+02

         4  4.862636E-04  8.176497E-03  2.802413E-06

 displacements (vx,vy,vz) for set TIPMARKER and time  0.1845000E+02

         4  4.944980E-04  1.236329E-02  2.096823E-06

 displacements (vx,vy,vz) for set TIPMARKER and time  0.1878750E+02

         4  4.949834E-04  6.307697E-03  4.577013E-07

 displacements (vx,vy,vz) for set TIPMARKER and time  0.1912500E+02

         4  4.858768E-04 -5.147993E-03 -5.921340E-07

 displacements (vx,vy,vz) for set TIPMARKER and time  0.1946250E+02

         4  4.782352E-04 -1.158421E-02 -1.781096E-07

 displacements (vx,vy,vz) for set TIPMARKER and time  0.1980000E+02

         4  5.040722E-04 -6.011139E-03  1.339035E-06

 displacements (vx,vy,vz) for set TIPMARKER and time  0.2013750E+02

         4  5.322297E-04  7.401676E-03  2.569916E-06

 displacements (vx,vy,vz) for set TIPMARKER and time  0.2047500E+02

         4  5.535052E-04  1.557663E-02  2.395459E-06

 displacements (vx,vy,vz) for set TIPMARKER and time  0.2081250E+02

         4  5.544833E-04  9.081839E-03  8.722665E-07

 displacements (vx,vy,vz) for set TIPMARKER and time  0.2115000E+02

         4  5.262890E-04 -6.822882E-03 -6.542240E-07

 displacements (vx,vy,vz) for set TIPMARKER and time  0.2148750E+02

         4  5.271819E-04 -1.576285E-02 -5.313958E-07

 displacements (vx,vy,vz) for set TIPMARKER and time  0.2182500E+02

         4  5.516312E-04 -7.161432E-03  1.295236E-06

 displacements (vx,vy,vz) for set TIPMARKER and time  0.2216250E+02

         4  5.861218E-04  1.105641E-02  3.083848E-06

 displacements (vx,vy,vz) for set TIPMARKER and time  0.2250000E+02

         4  6.123623E-04  1.938947E-02  2.886103E-06

 displacements (vx,vy,vz) for set TIPMARKER and time  0.2283750E+02

         4  5.948694E-04  7.815240E-03  6.439611E-07

 displacements (vx,vy,vz) for set TIPMARKER and time  0.2317500E+02

         4  5.755179E-04 -1.200772E-02 -1.289139E-06

 displacements (vx,vy,vz) for set TIPMARKER and time  0.2351250E+02

         4  5.786473E-04 -1.841304E-02 -6.866737E-07

 displacements (vx,vy,vz) for set TIPMARKER and time  0.2385000E+02

         4  6.036687E-04 -3.682719E-03  2.003743E-06

 displacements (vx,vy,vz) for set TIPMARKER and time  0.2418750E+02

         4  6.492471E-04  1.650297E-02  3.941067E-06

 displacements (vx,vy,vz) for set TIPMARKER and time  0.2452500E+02

         4  6.598837E-04  1.984484E-02  2.807386E-06

 displacements (vx,vy,vz) for set TIPMARKER and time  0.2486250E+02

         4  6.408590E-04  2.344189E-03 -2.786969E-07

 displacements (vx,vy,vz) for set TIPMARKER and time  0.2520000E+02

         4  6.252279E-04 -1.682935E-02 -1.872490E-06

 displacements (vx,vy,vz) for set TIPMARKER and time  0.2553750E+02

         4  6.243950E-04 -1.655747E-02 -8.799857E-08

 displacements (vx,vy,vz) for set TIPMARKER and time  0.2587500E+02

         4  6.673023E-04  2.685753E-03  3.246873E-06

 displacements (vx,vy,vz) for set TIPMARKER and time  0.2621250E+02

         4  7.031843E-04  1.951227E-02  4.340577E-06

 displacements (vx,vy,vz) for set TIPMARKER and time  0.2655000E+02

         4  7.021980E-04  1.565138E-02  1.877095E-06

 displacements (vx,vy,vz) for set TIPMARKER and time  0.2688750E+02

         4  6.866598E-04 -4.010882E-03 -1.371853E-06

 displacements (vx,vy,vz) for set TIPMARKER and time  0.2722500E+02

         4  6.680507E-04 -1.760359E-02 -1.735585E-06

 displacements (vx,vy,vz) for set TIPMARKER and time  0.2756250E+02

         4  6.882969E-04 -1.088884E-02  1.282387E-06

 displacements (vx,vy,vz) for set TIPMARKER and time  0.2790000E+02

         4  7.295307E-04  7.731843E-03  4.262722E-06

 displacements (vx,vy,vz) for set TIPMARKER and time  0.2823750E+02

         4  7.463951E-04  1.773378E-02  3.803203E-06

 displacements (vx,vy,vz) for set TIPMARKER and time  0.2857500E+02

         4  7.488653E-04  9.324654E-03  5.088176E-07

 displacements (vx,vy,vz) for set TIPMARKER and time  0.2891250E+02

         4  7.301666E-04 -7.091824E-03 -1.882450E-06

 displacements (vx,vy,vz) for set TIPMARKER and time  0.2925000E+02

         4  7.253723E-04 -1.385524E-02 -6.619699E-07

 displacements (vx,vy,vz) for set TIPMARKER and time  0.2958750E+02

         4  7.517167E-04 -5.212153E-03  2.723499E-06

 displacements (vx,vy,vz) for set TIPMARKER and time  0.2992500E+02

         4  7.732472E-04  8.262848E-03  4.375168E-06

 displacements (vx,vy,vz) for set TIPMARKER and time  0.3000000E+02

         4  7.770366E-04  1.047714E-02  4.211674E-06
