
 displacements (vx,vy,vz) for set TIPMARKER and time  0.1000000E+00

         4  2.899765E-06  4.641942E-05  1.603397E-08

 displacements (vx,vy,vz) for set TIPMARKER and time  0.2000000E+00

         4  8.066087E-06  2.019300E-04  4.141876E-08

 displacements (vx,vy,vz) for set TIPMARKER and time  0.3000000E+00

         4  1.303940E-05  4.857186E-04  7.883534E-08

 displacements (vx,vy,vz) for set TIPMARKER and time  0.4000000E+00

         4  1.554743E-05  8.957883E-04  1.371961E-07

 displacements (vx,vy,vz) for set TIPMARKER and time  0.5000000E+00

         4  1.667050E-05  1.425319E-03  2.163618E-07

 displacements (vx,vy,vz) for set TIPMARKER and time  0.6000000E+00

         4  2.046077E-05  2.011864E-03  3.158483E-07

 displacements (vx,vy,vz) for set TIPMARKER and time  0.7000000E+00

         4  2.508070E-05  2.514256E-03  4.203219E-07

 displacements (vx,vy,vz) for set TIPMARKER and time  0.8000000E+00

         4  2.840533E-05  2.810611E-03  5.033124E-07

 displacements (vx,vy,vz) for set TIPMARKER and time  0.9000000E+00

         4  2.893564E-05  2.846409E-03  5.357796E-07

 displacements (vx,vy,vz) for set TIPMARKER and time  0.1000000E+01

         4  3.026083E-05  2.595827E-03  5.177770E-07

 displacements (vx,vy,vz) for set TIPMARKER and time  0.1100000E+01

         4  3.381207E-05  2.094918E-03  4.617394E-07

 displacements (vx,vy,vz) for set TIPMARKER and time  0.1200000E+01

         4  3.767377E-05  1.470662E-03  3.742751E-07

 displacements (vx,vy,vz) for set TIPMARKER and time  0.1300000E+01

         4  3.974443E-05  8.680672E-04  2.676683E-07

 displacements (vx,vy,vz) for set TIPMARKER and time  0.1400000E+01

         4  3.850630E-05  3.800675E-04  1.656461E-07

 displacements (vx,vy,vz) for set TIPMARKER and time  0.1500000E+01

         4  3.992876E-05  6.087279E-05  1.027357E-07

 displacements (vx,vy,vz) for set TIPMARKER and time  0.1600000E+01

         4  4.335725E-05 -6.493515E-05  7.787477E-08

 displacements (vx,vy,vz) for set TIPMARKER and time  0.1700000E+01

         4  4.685832E-05 -4.029245E-05  8.068077E-08

 displacements (vx,vy,vz) for set TIPMARKER and time  0.1800000E+01

         4  4.847849E-05  6.197825E-05  1.000653E-07

 displacements (vx,vy,vz) for set TIPMARKER and time  0.1900000E+01

         4  4.906496E-05  2.125015E-04  1.268424E-07

 displacements (vx,vy,vz) for set TIPMARKER and time  0.2000000E+01

         4  5.303031E-05  4.153687E-04  1.640559E-07

 displacements (vx,vy,vz) for set TIPMARKER and time  0.2100000E+01

         4  5.847725E-05  6.767977E-04  2.106812E-07

 displacements (vx,vy,vz) for set TIPMARKER and time  0.2200000E+01

         4  6.296792E-05  1.014641E-03  2.675057E-07

 displacements (vx,vy,vz) for set TIPMARKER and time  0.2300000E+01

         4  6.459630E-05  1.448661E-03  3.305835E-07

 displacements (vx,vy,vz) for set TIPMARKER and time  0.2400000E+01

         4  6.645967E-05  1.941898E-03  4.071401E-07

 displacements (vx,vy,vz) for set TIPMARKER and time  0.2500000E+01

         4  7.040841E-05  2.397004E-03  4.965015E-07

 displacements (vx,vy,vz) for set TIPMARKER and time  0.2600000E+01

         4  7.463432E-05  2.713571E-03  5.761289E-07

 displacements (vx,vy,vz) for set TIPMARKER and time  0.2700000E+01

         4  7.715577E-05  2.807482E-03  6.182334E-07

 displacements (vx,vy,vz) for set TIPMARKER and time  0.2800000E+01

         4  7.653967E-05  2.620480E-03  6.065865E-07

 displacements (vx,vy,vz) for set TIPMARKER and time  0.2900000E+01

         4  7.833539E-05  2.164739E-03  5.553332E-07

 displacements (vx,vy,vz) for set TIPMARKER and time  0.3000000E+01

         4  8.207178E-05  1.539412E-03  4.693386E-07

 displacements (vx,vy,vz) for set TIPMARKER and time  0.3100000E+01

         4  8.562933E-05  8.780403E-04  3.617920E-07

 displacements (vx,vy,vz) for set TIPMARKER and time  0.3200000E+01

         4  8.688776E-05  3.021048E-04  2.545424E-07

 displacements (vx,vy,vz) for set TIPMARKER and time  0.3300000E+01

         4  8.619677E-05 -8.825209E-05  1.706317E-07

 displacements (vx,vy,vz) for set TIPMARKER and time  0.3400000E+01

         4  8.851778E-05 -2.449940E-04  1.337562E-07

 displacements (vx,vy,vz) for set TIPMARKER and time  0.3500000E+01

         4  9.236754E-05 -1.973228E-04  1.412808E-07

 displacements (vx,vy,vz) for set TIPMARKER and time  0.3600000E+01

         4  9.570913E-05 -1.532449E-05  1.799930E-07

 displacements (vx,vy,vz) for set TIPMARKER and time  0.3700000E+01

         4  9.686051E-05  2.391355E-04  2.290087E-07

 displacements (vx,vy,vz) for set TIPMARKER and time  0.3800000E+01

         4  9.866520E-05  5.213983E-04  2.824808E-07

 displacements (vx,vy,vz) for set TIPMARKER and time  0.3950000E+01

         4  1.067369E-04  9.804053E-04  3.765129E-07

 displacements (vx,vy,vz) for set TIPMARKER and time  0.4100000E+01

         4  1.125762E-04  1.502418E-03  4.636296E-07

 displacements (vx,vy,vz) for set TIPMARKER and time  0.4250000E+01

         4  1.139871E-04  2.039702E-03  5.470408E-07

 displacements (vx,vy,vz) for set TIPMARKER and time  0.4400000E+01

         4  1.198823E-04  2.414329E-03  6.312322E-07

 displacements (vx,vy,vz) for set TIPMARKER and time  0.4550000E+01

         4  1.240833E-04  2.392964E-03  6.537245E-07

 displacements (vx,vy,vz) for set TIPMARKER and time  0.4700000E+01

         4  1.231594E-04  1.860900E-03  5.782219E-07

 displacements (vx,vy,vz) for set TIPMARKER and time  0.4850000E+01

         4  1.283486E-04  9.760994E-04  4.469574E-07

 displacements (vx,vy,vz) for set TIPMARKER and time  0.5000000E+01

         4  1.332110E-04  1.106503E-04  2.990128E-07

 displacements (vx,vy,vz) for set TIPMARKER and time  0.5150000E+01

         4  1.315371E-04 -3.945527E-04  1.908966E-07

 displacements (vx,vy,vz) for set TIPMARKER and time  0.5300000E+01

         4  1.360696E-04 -4.085153E-04  1.930583E-07

 displacements (vx,vy,vz) for set TIPMARKER and time  0.5450000E+01

         4  1.417442E-04 -4.961257E-05  2.739662E-07

 displacements (vx,vy,vz) for set TIPMARKER and time  0.5600000E+01

         4  1.425149E-04  4.473589E-04  3.718105E-07

 displacements (vx,vy,vz) for set TIPMARKER and time  0.5750000E+01

         4  1.488197E-04  9.376680E-04  4.751152E-07

 displacements (vx,vy,vz) for set TIPMARKER and time  0.5900000E+01

         4  1.567311E-04  1.410303E-03  5.623760E-07

 displacements (vx,vy,vz) for set TIPMARKER and time  0.6050000E+01

         4  1.587172E-04  1.875218E-03  6.253184E-07

 displacements (vx,vy,vz) for set TIPMARKER and time  0.6200000E+01

         4  1.628218E-04  2.246606E-03  6.844214E-07

 displacements (vx,vy,vz) for set TIPMARKER and time  0.6350000E+01

         4  1.685166E-04  2.326709E-03  7.117679E-07

 displacements (vx,vy,vz) for set TIPMARKER and time  0.6500000E+01

         4  1.694208E-04  1.944699E-03  6.585509E-07

 displacements (vx,vy,vz) for set TIPMARKER and time  0.6650000E+01

         4  1.720794E-04  1.150243E-03  5.369585E-07

 displacements (vx,vy,vz) for set TIPMARKER and time  0.6800000E+01

         4  1.780956E-04  2.410248E-04  3.933996E-07

 displacements (vx,vy,vz) for set TIPMARKER and time  0.6950000E+01

         4  1.801954E-04 -4.042471E-04  2.786801E-07

 displacements (vx,vy,vz) for set TIPMARKER and time  0.7100000E+01

         4  1.821255E-04 -5.473021E-04  2.552016E-07

 displacements (vx,vy,vz) for set TIPMARKER and time  0.7250000E+01

         4  1.882978E-04 -2.250898E-04  3.363805E-07

 displacements (vx,vy,vz) for set TIPMARKER and time  0.7400000E+01

         4  1.921538E-04  3.262884E-04  4.597333E-07

 displacements (vx,vy,vz) for set TIPMARKER and time  0.7550000E+01

         4  1.951848E-04  8.803634E-04  5.732834E-07

 displacements (vx,vy,vz) for set TIPMARKER and time  0.7700000E+01

         4  2.033157E-04  1.350081E-03  6.654509E-07

 displacements (vx,vy,vz) for set TIPMARKER and time  0.7850000E+01

         4  2.088232E-04  1.755141E-03  7.204753E-07

 displacements (vx,vy,vz) for set TIPMARKER and time  0.8000000E+01

         4  2.100129E-04  2.089679E-03  7.464909E-07

 displacements (vx,vy,vz) for set TIPMARKER and time  0.8150000E+01

         4  2.155612E-04  2.225829E-03  7.625450E-07

 displacements (vx,vy,vz) for set TIPMARKER and time  0.8300000E+01

         4  2.192992E-04  1.983511E-03  7.270216E-07

 displacements (vx,vy,vz) for set TIPMARKER and time  0.8450000E+01

         4  2.182996E-04  1.316147E-03  6.155420E-07

 displacements (vx,vy,vz) for set TIPMARKER and time  0.8600000E+01

         4  2.235392E-04  4.190824E-04  4.814552E-07

 displacements (vx,vy,vz) for set TIPMARKER and time  0.8750000E+01

         4  2.284667E-04 -3.415721E-04  3.664849E-07

 displacements (vx,vy,vz) for set TIPMARKER and time  0.8900000E+01

         4  2.269888E-04 -6.451001E-04  3.148670E-07

 displacements (vx,vy,vz) for set TIPMARKER and time  0.9050000E+01

         4  2.319839E-04 -4.185280E-04  3.833737E-07

 displacements (vx,vy,vz) for set TIPMARKER and time  0.9200000E+01

         4  2.379252E-04  1.495826E-04  5.220139E-07

 displacements (vx,vy,vz) for set TIPMARKER and time  0.9350000E+01

         4  2.387897E-04  7.802931E-04  6.506212E-07

 displacements (vx,vy,vz) for set TIPMARKER and time  0.9500000E+01

         4  2.452295E-04  1.294617E-03  7.514807E-07

 displacements (vx,vy,vz) for set TIPMARKER and time  0.9650000E+01

         4  2.529220E-04  1.673818E-03  8.040395E-07

 displacements (vx,vy,vz) for set TIPMARKER and time  0.9800000E+01

         4  2.544520E-04  1.958600E-03  8.065407E-07

 displacements (vx,vy,vz) for set TIPMARKER and time  0.9950000E+01

         4  2.582750E-04  2.105393E-03  7.976489E-07

 displacements (vx,vy,vz) for set TIPMARKER and time  0.1010000E+02

         4  2.635730E-04  1.969991E-03  7.664545E-07

 displacements (vx,vy,vz) for set TIPMARKER and time  0.1025000E+02

         4  2.641211E-04  1.443988E-03  6.777545E-07

 displacements (vx,vy,vz) for set TIPMARKER and time  0.1040000E+02

         4  2.668401E-04  6.136684E-04  5.560173E-07

 displacements (vx,vy,vz) for set TIPMARKER and time  0.1055000E+02

         4  2.729601E-04 -2.152778E-04  4.471624E-07

 displacements (vx,vy,vz) for set TIPMARKER and time  0.1070000E+02

         4  2.752088E-04 -6.811198E-04  3.913675E-07

 displacements (vx,vy,vz) for set TIPMARKER and time  0.1085000E+02

         4  2.776089E-04 -5.985762E-04  4.367495E-07

 displacements (vx,vy,vz) for set TIPMARKER and time  0.1100000E+02

         4  2.841151E-04 -6.679074E-05  5.765431E-07

 displacements (vx,vy,vz) for set TIPMARKER and time  0.1115000E+02

         4  2.881014E-04  6.280070E-04  7.305590E-07

 displacements (vx,vy,vz) for set TIPMARKER and time  0.1130000E+02

         4  2.913349E-04  1.222341E-03  8.407493E-07

 displacements (vx,vy,vz) for set TIPMARKER and time  0.1145000E+02

         4  2.993644E-04  1.621266E-03  8.955522E-07

 displacements (vx,vy,vz) for set TIPMARKER and time  0.1160000E+02

         4  3.044880E-04  1.867178E-03  8.883798E-07

 displacements (vx,vy,vz) for set TIPMARKER and time  0.1175000E+02

         4  3.054433E-04  1.991517E-03  8.458477E-07

 displacements (vx,vy,vz) for set TIPMARKER and time  0.1190000E+02

         4  3.106697E-04  1.918243E-03  8.036592E-07

 displacements (vx,vy,vz) for set TIPMARKER and time  0.1205000E+02

         4  3.140725E-04  1.523711E-03  7.347771E-07

 displacements (vx,vy,vz) for set TIPMARKER and time  0.1220000E+02

         4  3.131245E-04  7.997909E-04  6.257390E-07

 displacements (vx,vy,vz) for set TIPMARKER and time  0.1235000E+02

         4  3.185080E-04 -4.134672E-05  5.285552E-07

 displacements (vx,vy,vz) for set TIPMARKER and time  0.1250000E+02

         4  3.235974E-04 -6.458734E-04  4.746499E-07

 displacements (vx,vy,vz) for set TIPMARKER and time  0.1265000E+02

         4  3.225787E-04 -7.378771E-04  4.932693E-07

 displacements (vx,vy,vz) for set TIPMARKER and time  0.1280000E+02

         4  3.279690E-04 -3.018218E-04  6.204336E-07

 displacements (vx,vy,vz) for set TIPMARKER and time  0.1295000E+02

         4  3.341013E-04  4.198877E-04  7.891399E-07

 displacements (vx,vy,vz) for set TIPMARKER and time  0.1310000E+02

         4  3.349279E-04  1.108603E-03  9.117048E-07

 displacements (vx,vy,vz) for set TIPMARKER and time  0.1325000E+02

         4  3.413741E-04  1.574110E-03  9.725991E-07

 displacements (vx,vy,vz) for set TIPMARKER and time  0.1340000E+02

         4  3.487794E-04  1.813876E-03  9.612152E-07

 displacements (vx,vy,vz) for set TIPMARKER and time  0.1355000E+02

         4  3.498232E-04  1.902569E-03  8.936551E-07

 displacements (vx,vy,vz) for set TIPMARKER and time  0.1370000E+02

         4  3.533887E-04  1.845663E-03  8.274371E-07

 displacements (vx,vy,vz) for set TIPMARKER and time  0.1385000E+02

         4  3.583913E-04  1.550798E-03  7.655324E-07

 displacements (vx,vy,vz) for set TIPMARKER and time  0.1400000E+02

         4  3.586906E-04  9.501259E-04  6.814354E-07

 displacements (vx,vy,vz) for set TIPMARKER and time  0.1415000E+02

         4  3.615758E-04  1.519506E-04  5.991760E-07

 displacements (vx,vy,vz) for set TIPMARKER and time  0.1430000E+02

         4  3.678909E-04 -5.443664E-04  5.533847E-07

 displacements (vx,vy,vz) for set TIPMARKER and time  0.1445000E+02

         4  3.703116E-04 -8.132714E-04  5.676728E-07

 displacements (vx,vy,vz) for set TIPMARKER and time  0.1460000E+02

         4  3.731485E-04 -5.228386E-04  6.712056E-07

 displacements (vx,vy,vz) for set TIPMARKER and time  0.1475000E+02

         4  3.799183E-04  1.721751E-04  8.398595E-07

 displacements (vx,vy,vz) for set TIPMARKER and time  0.1490000E+02

         4  3.839177E-04  9.430359E-04  9.855528E-07

 displacements (vx,vy,vz) for set TIPMARKER and time  0.1505000E+02

         4  3.872405E-04  1.509930E-03  1.053204E-06

 displacements (vx,vy,vz) for set TIPMARKER and time  0.1520000E+02

         4  3.950889E-04  1.788277E-03  1.042328E-06

 displacements (vx,vy,vz) for set TIPMARKER and time  0.1535000E+02

         4  3.997846E-04  1.851904E-03  9.645417E-07

 displacements (vx,vy,vz) for set TIPMARKER and time  0.1550000E+02

         4  4.005228E-04  1.778033E-03  8.659536E-07

 displacements (vx,vy,vz) for set TIPMARKER and time  0.1565000E+02

         4  4.055028E-04  1.539493E-03  7.961114E-07

 displacements (vx,vy,vz) for set TIPMARKER and time  0.1580000E+02

         4  4.086646E-04  1.054142E-03  7.352448E-07

 displacements (vx,vy,vz) for set TIPMARKER and time  0.1595000E+02

         4  4.078758E-04  3.392921E-04  6.684963E-07

 displacements (vx,vy,vz) for set TIPMARKER and time  0.1610000E+02

         4  4.134909E-04 -3.929546E-04  6.361584E-07

 displacements (vx,vy,vz) for set TIPMARKER and time  0.1625000E+02

         4  4.187770E-04 -8.167930E-04  6.524008E-07

 displacements (vx,vy,vz) for set TIPMARKER and time  0.1640000E+02

         4  4.182059E-04 -7.045254E-04  7.279184E-07

 displacements (vx,vy,vz) for set TIPMARKER and time  0.1655000E+02

         4  4.239317E-04 -9.614998E-05  8.820770E-07

 displacements (vx,vy,vz) for set TIPMARKER and time  0.1670000E+02

         4  4.301527E-04  7.200868E-04  1.039972E-06

 displacements (vx,vy,vz) for set TIPMARKER and time  0.1685000E+02

         4  4.308375E-04  1.403307E-03  1.116712E-06

 displacements (vx,vy,vz) for set TIPMARKER and time  0.1700000E+02

         4  4.372045E-04  1.767888E-03  1.110400E-06

 displacements (vx,vy,vz) for set TIPMARKER and time  0.1715000E+02

         4  4.442690E-04  1.839195E-03  1.028165E-06

 displacements (vx,vy,vz) for set TIPMARKER and time  0.1730000E+02

         4  4.448317E-04  1.734998E-03  9.052480E-07

 displacements (vx,vy,vz) for set TIPMARKER and time  0.1745000E+02

         4  4.481948E-04  1.507988E-03  8.146157E-07

 displacements (vx,vy,vz) for set TIPMARKER and time  0.1760000E+02

         4  4.529858E-04  1.107689E-03  7.644361E-07

 displacements (vx,vy,vz) for set TIPMARKER and time  0.1775000E+02

         4  4.531378E-04  4.942663E-04  7.248397E-07

 displacements (vx,vy,vz) for set TIPMARKER and time  0.1790000E+02

         4  4.562761E-04 -2.184733E-04  7.090592E-07

 displacements (vx,vy,vz) for set TIPMARKER and time  0.1805000E+02

         4  4.628321E-04 -7.516640E-04  7.331729E-07

 displacements (vx,vy,vz) for set TIPMARKER and time  0.1820000E+02

         4  4.654265E-04 -8.222899E-04  8.018047E-07

 displacements (vx,vy,vz) for set TIPMARKER and time  0.1835000E+02

         4  4.686535E-04 -3.522818E-04  9.299056E-07

 displacements (vx,vy,vz) for set TIPMARKER and time  0.1850000E+02

         4  4.755996E-04  4.550486E-04  1.085145E-06

 displacements (vx,vy,vz) for set TIPMARKER and time  0.1865000E+02

         4  4.795143E-04  1.242617E-03  1.182721E-06

 displacements (vx,vy,vz) for set TIPMARKER and time  0.1880000E+02

         4  4.828382E-04  1.728992E-03  1.181862E-06

 displacements (vx,vy,vz) for set TIPMARKER and time  0.1895000E+02

         4  4.904461E-04  1.853183E-03  1.100262E-06

 displacements (vx,vy,vz) for set TIPMARKER and time  0.1910000E+02

         4  4.947045E-04  1.729581E-03  9.688953E-07

 displacements (vx,vy,vz) for set TIPMARKER and time  0.1925000E+02

         4  4.952645E-04  1.481681E-03  8.491656E-07

 displacements (vx,vy,vz) for set TIPMARKER and time  0.1940000E+02

         4  5.000717E-04  1.124603E-03  7.949455E-07

 displacements (vx,vy,vz) for set TIPMARKER and time  0.1955000E+02

         4  5.030861E-04  6.061625E-04  7.817696E-07

 displacements (vx,vy,vz) for set TIPMARKER and time  0.1970000E+02

         4  5.025440E-04 -4.617459E-05  7.829535E-07

 displacements (vx,vy,vz) for set TIPMARKER and time  0.1985000E+02

         4  5.084455E-04 -6.340775E-04  8.199656E-07

 displacements (vx,vy,vz) for set TIPMARKER and time  0.2000000E+02

         4  5.139414E-04 -8.681721E-04  8.882966E-07

 displacements (vx,vy,vz) for set TIPMARKER and time  0.2015000E+02

         4  5.137854E-04 -5.715067E-04  9.852652E-07

 displacements (vx,vy,vz) for set TIPMARKER and time  0.2030000E+02

         4  5.197727E-04  1.657003E-04  1.123108E-06

 displacements (vx,vy,vz) for set TIPMARKER and time  0.2045000E+02

         4  5.259900E-04  1.021083E-03  1.230746E-06

 displacements (vx,vy,vz) for set TIPMARKER and time  0.2060000E+02

         4  5.264450E-04  1.645393E-03  1.237143E-06

 displacements (vx,vy,vz) for set TIPMARKER and time  0.2075000E+02

         4  5.326678E-04  1.871298E-03  1.160650E-06

 displacements (vx,vy,vz) for set TIPMARKER and time  0.2090000E+02

         4  5.393689E-04  1.761875E-03  1.026934E-06

 displacements (vx,vy,vz) for set TIPMARKER and time  0.2105000E+02

         4  5.394756E-04  1.480579E-03  8.853534E-07

 displacements (vx,vy,vz) for set TIPMARKER and time  0.2120000E+02

         4  5.426992E-04  1.123142E-03  8.142408E-07

 displacements (vx,vy,vz) for set TIPMARKER and time  0.2135000E+02

         4  5.473646E-04  6.708902E-04  8.149921E-07

 displacements (vx,vy,vz) for set TIPMARKER and time  0.2150000E+02

         4  5.474557E-04  9.793073E-05  8.438934E-07

 displacements (vx,vy,vz) for set TIPMARKER and time  0.2165000E+02

         4  5.509098E-04 -4.899348E-04  8.967266E-07

 displacements (vx,vy,vz) for set TIPMARKER and time  0.2180000E+02

         4  5.577303E-04 -8.441587E-04  9.704016E-07

 displacements (vx,vy,vz) for set TIPMARKER and time  0.2195000E+02

         4  5.604772E-04 -7.284347E-04  1.056207E-06

 displacements (vx,vy,vz) for set TIPMARKER and time  0.2210000E+02

         4  5.640334E-04 -1.151965E-04  1.164889E-06

 displacements (vx,vy,vz) for set TIPMARKER and time  0.2225000E+02

         4  5.710699E-04  7.532797E-04  1.267921E-06

 displacements (vx,vy,vz) for set TIPMARKER and time  0.2240000E+02

         4  5.748112E-04  1.504541E-03  1.294521E-06

 displacements (vx,vy,vz) for set TIPMARKER and time  0.2255000E+02

         4  5.780673E-04  1.869236E-03  1.224418E-06

 displacements (vx,vy,vz) for set TIPMARKER and time  0.2270000E+02

         4  5.854011E-04  1.820496E-03  1.093748E-06

 displacements (vx,vy,vz) for set TIPMARKER and time  0.2285000E+02

         4  5.892330E-04  1.517713E-03  9.470612E-07

 displacements (vx,vy,vz) for set TIPMARKER and time  0.2300000E+02

         4  5.896677E-04  1.128526E-03  8.505672E-07

 displacements (vx,vy,vz) for set TIPMARKER and time  0.2315000E+02

         4  5.943803E-04  7.018758E-04  8.504095E-07

 displacements (vx,vy,vz) for set TIPMARKER and time  0.2330000E+02

         4  5.973315E-04  2.027668E-04  9.070387E-07

 displacements (vx,vy,vz) for set TIPMARKER and time  0.2345000E+02

         4  5.971054E-04 -3.444928E-04  9.758562E-07

 displacements (vx,vy,vz) for set TIPMARKER and time  0.2360000E+02

         4  6.033268E-04 -7.661583E-04  1.059606E-06

 displacements (vx,vy,vz) for set TIPMARKER and time  0.2375000E+02

         4  6.090227E-04 -8.149170E-04  1.141295E-06

 displacements (vx,vy,vz) for set TIPMARKER and time  0.2390000E+02

         4  6.092335E-04 -3.632085E-04  1.215352E-06

 displacements (vx,vy,vz) for set TIPMARKER and time  0.2405000E+02

         4  6.154040E-04  4.561935E-04  1.299008E-06

 displacements (vx,vy,vz) for set TIPMARKER and time  0.2420000E+02

         4  6.215302E-04  1.298764E-03  1.335412E-06

 displacements (vx,vy,vz) for set TIPMARKER and time  0.2435000E+02

         4  6.216830E-04  1.820318E-03  1.273103E-06

 displacements (vx,vy,vz) for set TIPMARKER and time  0.2450000E+02

         4  6.277190E-04  1.883001E-03  1.150297E-06

 displacements (vx,vy,vz) for set TIPMARKER and time  0.2465000E+02

         4  6.340549E-04  1.593673E-03  1.004748E-06

 displacements (vx,vy,vz) for set TIPMARKER and time  0.2480000E+02

         4  6.337474E-04  1.161183E-03  8.891014E-07

 displacements (vx,vy,vz) for set TIPMARKER and time  0.2495000E+02

         4  6.369024E-04  7.175201E-04  8.749307E-07

 displacements (vx,vy,vz) for set TIPMARKER and time  0.2510000E+02

         4  6.415234E-04  2.643505E-04  9.466929E-07

 displacements (vx,vy,vz) for set TIPMARKER and time  0.2525000E+02

         4  6.416266E-04 -2.232879E-04  1.041337E-06

 displacements (vx,vy,vz) for set TIPMARKER and time  0.2540000E+02

         4  6.454394E-04 -6.590779E-04  1.137978E-06

 displacements (vx,vy,vz) for set TIPMARKER and time  0.2555000E+02

         4  6.525258E-04 -8.317384E-04  1.221120E-06

 displacements (vx,vy,vz) for set TIPMARKER and time  0.2570000E+02

         4  6.553860E-04 -5.524546E-04  1.279579E-06

 displacements (vx,vy,vz) for set TIPMARKER and time  0.2585000E+02

         4  6.592013E-04  1.619089E-04  1.332074E-06

 displacements (vx,vy,vz) for set TIPMARKER and time  0.2600000E+02

         4  6.662438E-04  1.041083E-03  1.363950E-06

 displacements (vx,vy,vz) for set TIPMARKER and time  0.2615000E+02

         4  6.697344E-04  1.710002E-03  1.323598E-06

 displacements (vx,vy,vz) for set TIPMARKER and time  0.2630000E+02

         4  6.728727E-04  1.923531E-03  1.210255E-06

 displacements (vx,vy,vz) for set TIPMARKER and time  0.2645000E+02

         4  6.799209E-04  1.696431E-03  1.071440E-06

 displacements (vx,vy,vz) for set TIPMARKER and time  0.2660000E+02

         4  6.833560E-04  1.234011E-03  9.540617E-07

 displacements (vx,vy,vz) for set TIPMARKER and time  0.2675000E+02

         4  6.837294E-04  7.431783E-04  9.170316E-07

 displacements (vx,vy,vz) for set TIPMARKER and time  0.2690000E+02

         4  6.884270E-04  2.965027E-04  9.888904E-07

 displacements (vx,vy,vz) for set TIPMARKER and time  0.2705000E+02

         4  6.913891E-04 -1.368385E-04  1.110069E-06

 displacements (vx,vy,vz) for set TIPMARKER and time  0.2720000E+02

         4  6.915306E-04 -5.472962E-04  1.219564E-06

 displacements (vx,vy,vz) for set TIPMARKER and time  0.2735000E+02

         4  6.980842E-04 -7.938009E-04  1.308738E-06

 displacements (vx,vy,vz) for set TIPMARKER and time  0.2750000E+02

         4  7.039506E-04 -6.735727E-04  1.359333E-06

 displacements (vx,vy,vz) for set TIPMARKER and time  0.2765000E+02

         4  7.044672E-04 -1.039330E-04  1.375061E-06

 displacements (vx,vy,vz) for set TIPMARKER and time  0.2780000E+02

         4  7.107396E-04  7.493354E-04  1.387794E-06

 displacements (vx,vy,vz) for set TIPMARKER and time  0.2795000E+02

         4  7.166947E-04  1.531846E-03  1.359474E-06

 displacements (vx,vy,vz) for set TIPMARKER and time  0.2810000E+02

         4  7.164897E-04  1.916815E-03  1.256518E-06

 displacements (vx,vy,vz) for set TIPMARKER and time  0.2825000E+02

         4  7.223169E-04  1.804444E-03  1.129355E-06

 displacements (vx,vy,vz) for set TIPMARKER and time  0.2840000E+02

         4  7.283059E-04  1.348155E-03  1.016374E-06

 displacements (vx,vy,vz) for set TIPMARKER and time  0.2855000E+02

         4  7.276402E-04  7.989227E-04  9.614383E-07

 displacements (vx,vy,vz) for set TIPMARKER and time  0.2870000E+02

         4  7.308020E-04  3.160093E-04  1.019862E-06

 displacements (vx,vy,vz) for set TIPMARKER and time  0.2885000E+02

         4  7.354540E-04 -9.075869E-05  1.154891E-06

 displacements (vx,vy,vz) for set TIPMARKER and time  0.2900000E+02

         4  7.356273E-04 -4.573597E-04  1.286303E-06

 displacements (vx,vy,vz) for set TIPMARKER and time  0.2915000E+02

         4  7.398215E-04 -7.261584E-04  1.384435E-06

 displacements (vx,vy,vz) for set TIPMARKER and time  0.2930000E+02

         4  7.471547E-04 -7.269928E-04  1.432916E-06

 displacements (vx,vy,vz) for set TIPMARKER and time  0.2945000E+02

         4  7.500762E-04 -3.156039E-04  1.430180E-06

 displacements (vx,vy,vz) for set TIPMARKER and time  0.2960000E+02

         4  7.540748E-04  4.546044E-04  1.412111E-06

 displacements (vx,vy,vz) for set TIPMARKER and time  0.2975000E+02

         4  7.610418E-04  1.296892E-03  1.381832E-06

 displacements (vx,vy,vz) for set TIPMARKER and time  0.2990000E+02

         4  7.642197E-04  1.846227E-03  1.304543E-06

 displacements (vx,vy,vz) for set TIPMARKER and time  0.3000000E+02

         4  7.645020E-04  1.914495E-03  1.222716E-06
