
 displacements (vx,vy,vz) for set TIPMARKER and time  0.1000000E+00

         4 -3.721364E-08  7.843661E-06  2.047277E-09

 displacements (vx,vy,vz) for set TIPMARKER and time  0.2000000E+00

         4  5.599045E-07  3.742785E-05  6.874921E-09

 displacements (vx,vy,vz) for set TIPMARKER and time  0.3000000E+00

         4  1.789013E-06  1.030430E-04  1.678948E-08

 displacements (vx,vy,vz) for set TIPMARKER and time  0.4000000E+00

         4  3.652557E-06  2.243920E-04  3.597689E-08

 displacements (vx,vy,vz) for set TIPMARKER and time  0.5000000E+00

         4  6.182035E-06  4.289933E-04  6.753014E-08

 displacements (vx,vy,vz) for set TIPMARKER and time  0.6000000E+00

         4  9.396224E-06  7.427837E-04  1.147984E-07

 displacements (vx,vy,vz) for set TIPMARKER and time  0.7000000E+00

         4  1.327175E-05  1.181367E-03  1.820841E-07

 displacements (vx,vy,vz) for set TIPMARKER and time  0.8000000E+00

         4  1.777895E-05  1.756097E-03  2.719377E-07

 displacements (vx,vy,vz) for set TIPMARKER and time  0.9000000E+00

         4  2.290303E-05  2.473169E-03  3.846352E-07

 displacements (vx,vy,vz) for set TIPMARKER and time  0.1000000E+01

         4  2.856718E-05  3.323005E-03  5.194592E-07

 displacements (vx,vy,vz) for set TIPMARKER and time  0.1100000E+01

         4  3.467508E-05  4.284084E-03  6.746807E-07

 displacements (vx,vy,vz) for set TIPMARKER and time  0.1200000E+01

         4  4.113206E-05  5.330728E-03  8.457402E-07

 displacements (vx,vy,vz) for set TIPMARKER and time  0.1300000E+01

         4  4.783689E-05  6.430326E-03  1.026536E-06

 displacements (vx,vy,vz) for set TIPMARKER and time  0.1400000E+01

         4  5.464777E-05  7.542398E-03  1.211382E-06

 displacements (vx,vy,vz) for set TIPMARKER and time  0.1500000E+01

         4  6.143822E-05  8.628088E-03  1.393903E-06

 displacements (vx,vy,vz) for set TIPMARKER and time  0.1600000E+01

         4  6.810354E-05  9.656096E-03  1.567313E-06

 displacements (vx,vy,vz) for set TIPMARKER and time  0.1700000E+01

         4  7.453777E-05  1.059839E-02  1.726302E-06

 displacements (vx,vy,vz) for set TIPMARKER and time  0.1800000E+01

         4  8.063024E-05  1.143375E-02  1.867629E-06

 displacements (vx,vy,vz) for set TIPMARKER and time  0.1900000E+01

         4  8.632023E-05  1.215511E-02  1.988950E-06

 displacements (vx,vy,vz) for set TIPMARKER and time  0.2000000E+01

         4  9.155961E-05  1.276585E-02  2.089354E-06

 displacements (vx,vy,vz) for set TIPMARKER and time  0.2100000E+01

         4  9.630493E-05  1.327481E-02  2.170541E-06

 displacements (vx,vy,vz) for set TIPMARKER and time  0.2200000E+01

         4  1.005247E-04  1.369824E-02  2.235398E-06

 displacements (vx,vy,vz) for set TIPMARKER and time  0.2300000E+01

         4  1.042228E-04  1.405938E-02  2.286914E-06

 displacements (vx,vy,vz) for set TIPMARKER and time  0.2400000E+01

         4  1.073910E-04  1.437961E-02  2.328764E-06

 displacements (vx,vy,vz) for set TIPMARKER and time  0.2500000E+01

         4  1.100119E-04  1.467498E-02  2.364900E-06

 displacements (vx,vy,vz) for set TIPMARKER and time  0.2650000E+01

         4  1.126879E-04  1.509316E-02  2.412647E-06

 displacements (vx,vy,vz) for set TIPMARKER and time  0.2875000E+01

         4  1.136191E-04  1.562081E-02  2.467150E-06

 displacements (vx,vy,vz) for set TIPMARKER and time  0.3212500E+01

         4  1.151620E-04  1.571402E-02  2.464144E-06

 displacements (vx,vy,vz) for set TIPMARKER and time  0.3550000E+01

         4  1.191545E-04  1.436365E-02  2.260444E-06

 displacements (vx,vy,vz) for set TIPMARKER and time  0.3887500E+01

         4  1.243458E-04  1.144663E-02  1.815004E-06

 displacements (vx,vy,vz) for set TIPMARKER and time  0.4225000E+01

         4  1.304855E-04  7.751204E-03  1.245822E-06

 displacements (vx,vy,vz) for set TIPMARKER and time  0.4562500E+01

         4  1.376679E-04  4.419549E-03  7.444507E-07

 displacements (vx,vy,vz) for set TIPMARKER and time  0.4900000E+01

         4  1.450447E-04  2.075341E-03  4.265783E-07

 displacements (vx,vy,vz) for set TIPMARKER and time  0.5237500E+01

         4  1.506904E-04  5.541045E-04  2.553147E-07

 displacements (vx,vy,vz) for set TIPMARKER and time  0.5575000E+01

         4  1.525472E-04 -6.067012E-04  1.261447E-07

 displacements (vx,vy,vz) for set TIPMARKER and time  0.5912500E+01

         4  1.498316E-04 -1.431742E-03  8.329615E-09

 displacements (vx,vy,vz) for set TIPMARKER and time  0.6250000E+01

         4  1.531987E-04 -1.344532E-03  1.989570E-08

 displacements (vx,vy,vz) for set TIPMARKER and time  0.6587500E+01

         4  1.650655E-04  2.564586E-04  2.821051E-07

 displacements (vx,vy,vz) for set TIPMARKER and time  0.6925000E+01

         4  1.838833E-04  3.293466E-03  7.910859E-07

 displacements (vx,vy,vz) for set TIPMARKER and time  0.7262500E+01

         4  2.061951E-04  6.887340E-03  1.393629E-06

 displacements (vx,vy,vz) for set TIPMARKER and time  0.7600000E+01

         4  2.279509E-04  9.985489E-03  1.896609E-06

 displacements (vx,vy,vz) for set TIPMARKER and time  0.7937500E+01

         4  2.459868E-04  1.209727E-02  2.213952E-06

 displacements (vx,vy,vz) for set TIPMARKER and time  0.8275000E+01

         4  2.585679E-04  1.344689E-02  2.397958E-06

 displacements (vx,vy,vz) for set TIPMARKER and time  0.8612500E+01

         4  2.647771E-04  1.442949E-02  2.532113E-06

 displacements (vx,vy,vz) for set TIPMARKER and time  0.8950000E+01

         4  2.636291E-04  1.497035E-02  2.607604E-06

 displacements (vx,vy,vz) for set TIPMARKER and time  0.9287500E+01

         4  2.657457E-04  1.449808E-02  2.543267E-06

 displacements (vx,vy,vz) for set TIPMARKER and time  0.9625000E+01

         4  2.699789E-04  1.254104E-02  2.239600E-06

 displacements (vx,vy,vz) for set TIPMARKER and time  0.9962500E+01

         4  2.754854E-04  9.325412E-03  1.731275E-06

 displacements (vx,vy,vz) for set TIPMARKER and time  0.1030000E+02

         4  2.820816E-04  5.732861E-03  1.184365E-06

 displacements (vx,vy,vz) for set TIPMARKER and time  0.1063750E+02

         4  2.894128E-04  2.671162E-03  7.647338E-07

 displacements (vx,vy,vz) for set TIPMARKER and time  0.1097500E+02

         4  2.962349E-04  4.867404E-04  5.109950E-07

 displacements (vx,vy,vz) for set TIPMARKER and time  0.1131250E+02

         4  3.006065E-04 -1.037927E-03  3.422892E-07

 displacements (vx,vy,vz) for set TIPMARKER and time  0.1165000E+02

         4  3.009942E-04 -2.147970E-03  1.839565E-07

 displacements (vx,vy,vz) for set TIPMARKER and time  0.1198750E+02

         4  2.987282E-04 -2.647909E-03  7.922002E-08

 displacements (vx,vy,vz) for set TIPMARKER and time  0.1232500E+02

         4  3.049350E-04 -1.996731E-03  1.781232E-07

 displacements (vx,vy,vz) for set TIPMARKER and time  0.1266250E+02

         4  3.192091E-04  1.224261E-04  5.479350E-07

 displacements (vx,vy,vz) for set TIPMARKER and time  0.1300000E+02

         4  3.393315E-04  3.350774E-03  1.106465E-06

 displacements (vx,vy,vz) for set TIPMARKER and time  0.1333750E+02

         4  3.617069E-04  6.797050E-03  1.667281E-06

 displacements (vx,vy,vz) for set TIPMARKER and time  0.1367500E+02

         4  3.826174E-04  9.641366E-03  2.084295E-06

 displacements (vx,vy,vz) for set TIPMARKER and time  0.1401250E+02

         4  3.993280E-04  1.162389E-02  2.346720E-06

 displacements (vx,vy,vz) for set TIPMARKER and time  0.1435000E+02

         4  4.102338E-04  1.296342E-02  2.533186E-06

 displacements (vx,vy,vz) for set TIPMARKER and time  0.1468750E+02

         4  4.142630E-04  1.384136E-02  2.681019E-06

 displacements (vx,vy,vz) for set TIPMARKER and time  0.1502500E+02

         4  4.138360E-04  1.402083E-02  2.724585E-06

 displacements (vx,vy,vz) for set TIPMARKER and time  0.1536250E+02

         4  4.165305E-04  1.301507E-02  2.564716E-06

 displacements (vx,vy,vz) for set TIPMARKER and time  0.1570000E+02

         4  4.211967E-04  1.062926E-02  2.163291E-06

 displacements (vx,vy,vz) for set TIPMARKER and time  0.1603750E+02

         4  4.271832E-04  7.296790E-03  1.629475E-06

 displacements (vx,vy,vz) for set TIPMARKER and time  0.1637500E+02

         4  4.341547E-04  3.859819E-03  1.140224E-06

 displacements (vx,vy,vz) for set TIPMARKER and time  0.1671250E+02

         4  4.413907E-04  1.010800E-03  7.987790E-07

 displacements (vx,vy,vz) for set TIPMARKER and time  0.1705000E+02

         4  4.474289E-04 -1.063221E-03  5.743419E-07

 displacements (vx,vy,vz) for set TIPMARKER and time  0.1738750E+02

         4  4.505402E-04 -2.525387E-03  3.810988E-07

 displacements (vx,vy,vz) for set TIPMARKER and time  0.1772500E+02

         4  4.496510E-04 -3.437314E-03  2.064568E-07

 displacements (vx,vy,vz) for set TIPMARKER and time  0.1806250E+02

         4  4.501158E-04 -3.510531E-03  1.613971E-07

 displacements (vx,vy,vz) for set TIPMARKER and time  0.1840000E+02

         4  4.590188E-04 -2.333246E-03  3.728692E-07

 displacements (vx,vy,vz) for set TIPMARKER and time  0.1873750E+02

         4  4.753064E-04  1.587528E-04  8.331636E-07

 displacements (vx,vy,vz) for set TIPMARKER and time  0.1907500E+02

         4  4.963356E-04  3.456568E-03  1.397119E-06

 displacements (vx,vy,vz) for set TIPMARKER and time  0.1941250E+02

         4  5.185283E-04  6.743366E-03  1.890346E-06

 displacements (vx,vy,vz) for set TIPMARKER and time  0.1975000E+02

         4  5.384885E-04  9.402922E-03  2.237956E-06

 displacements (vx,vy,vz) for set TIPMARKER and time  0.2008750E+02

         4  5.537499E-04  1.129371E-02  2.484407E-06

 displacements (vx,vy,vz) for set TIPMARKER and time  0.2042500E+02

         4  5.627429E-04  1.255863E-02  2.691184E-06

 displacements (vx,vy,vz) for set TIPMARKER and time  0.2076250E+02

         4  5.643414E-04  1.321236E-02  2.829199E-06

 displacements (vx,vy,vz) for set TIPMARKER and time  0.2110000E+02

         4  5.647832E-04  1.296620E-02  2.802623E-06

 displacements (vx,vy,vz) for set TIPMARKER and time  0.2143750E+02

         4  5.680747E-04  1.148520E-02  2.535617E-06

 displacements (vx,vy,vz) for set TIPMARKER and time  0.2177500E+02

         4  5.732616E-04  8.802675E-03  2.068217E-06

 displacements (vx,vy,vz) for set TIPMARKER and time  0.2211250E+02

         4  5.797295E-04  5.451940E-03  1.554107E-06

 displacements (vx,vy,vz) for set TIPMARKER and time  0.2245000E+02

         4  5.869115E-04  2.174945E-03  1.137500E-06

 displacements (vx,vy,vz) for set TIPMARKER and time  0.2278750E+02

         4  5.938049E-04 -5.101332E-04  8.476110E-07

 displacements (vx,vy,vz) for set TIPMARKER and time  0.2312500E+02

         4  5.989101E-04 -2.482093E-03  6.167062E-07

 displacements (vx,vy,vz) for set TIPMARKER and time  0.2346250E+02

         4  6.007873E-04 -3.808970E-03  3.959608E-07

 displacements (vx,vy,vz) for set TIPMARKER and time  0.2380000E+02

         4  5.987588E-04 -4.419073E-03  2.401707E-07

 displacements (vx,vy,vz) for set TIPMARKER and time  0.2413750E+02

         4  6.019857E-04 -4.025542E-03  2.916972E-07

 displacements (vx,vy,vz) for set TIPMARKER and time  0.2447500E+02

         4  6.133629E-04 -2.389373E-03  6.146552E-07

 displacements (vx,vy,vz) for set TIPMARKER and time  0.2481250E+02

         4  6.312906E-04  3.522205E-04  1.125930E-06

 displacements (vx,vy,vz) for set TIPMARKER and time  0.2515000E+02

         4  6.528760E-04  3.635974E-03  1.656586E-06

 displacements (vx,vy,vz) for set TIPMARKER and time  0.2548750E+02

         4  6.746668E-04  6.767796E-03  2.081300E-06

 displacements (vx,vy,vz) for set TIPMARKER and time  0.2582500E+02

         4  6.935397E-04  9.289217E-03  2.393135E-06

 displacements (vx,vy,vz) for set TIPMARKER and time  0.2616250E+02

         4  7.071861E-04  1.109224E-02  2.651878E-06

 displacements (vx,vy,vz) for set TIPMARKER and time  0.2650000E+02

         4  7.140391E-04  1.221087E-02  2.869045E-06

 displacements (vx,vy,vz) for set TIPMARKER and time  0.2683750E+02

         4  7.130188E-04  1.254743E-02  2.958336E-06

 displacements (vx,vy,vz) for set TIPMARKER and time  0.2717500E+02

         4  7.142492E-04  1.184945E-02  2.835020E-06

 displacements (vx,vy,vz) for set TIPMARKER and time  0.2751250E+02

         4  7.181560E-04  9.963338E-03  2.476385E-06

 displacements (vx,vy,vz) for set TIPMARKER and time  0.2785000E+02

         4  7.239025E-04  7.093426E-03  1.986941E-06

 displacements (vx,vy,vz) for set TIPMARKER and time  0.2818750E+02

         4  7.307890E-04  3.788179E-03  1.522129E-06

 displacements (vx,vy,vz) for set TIPMARKER and time  0.2852500E+02

         4  7.379904E-04  6.612343E-04  1.166291E-06

 displacements (vx,vy,vz) for set TIPMARKER and time  0.2886250E+02

         4  7.443269E-04 -1.893275E-03  8.918168E-07

 displacements (vx,vy,vz) for set TIPMARKER and time  0.2920000E+02

         4  7.483931E-04 -3.750885E-03  6.365282E-07

 displacements (vx,vy,vz) for set TIPMARKER and time  0.2953750E+02

         4  7.490794E-04 -4.870240E-03  4.105173E-07

 displacements (vx,vy,vz) for set TIPMARKER and time  0.2987500E+02

         4  7.465856E-04 -5.106950E-03  3.155256E-07

 displacements (vx,vy,vz) for set TIPMARKER and time  0.3000000E+02

         4  7.470107E-04 -4.943073E-03  3.398515E-07
