
 displacements (vx,vy,vz) for set TIPMARKER and time  0.1000000E+00

         4  3.166679E-07  1.249140E-05  3.732691E-09

 displacements (vx,vy,vz) for set TIPMARKER and time  0.2000000E+00

         4  1.627828E-06  5.939410E-05  1.181595E-08

 displacements (vx,vy,vz) for set TIPMARKER and time  0.3000000E+00

         4  3.895056E-06  1.626703E-04  2.777243E-08

 displacements (vx,vy,vz) for set TIPMARKER and time  0.4000000E+00

         4  7.075813E-06  3.519536E-04  5.798529E-08

 displacements (vx,vy,vz) for set TIPMARKER and time  0.5000000E+00

         4  1.115365E-05  6.678930E-04  1.068583E-07

 displacements (vx,vy,vz) for set TIPMARKER and time  0.6000000E+00

         4  1.608522E-05  1.146534E-03  1.788935E-07

 displacements (vx,vy,vz) for set TIPMARKER and time  0.7000000E+00

         4  2.174025E-05  1.804821E-03  2.797331E-07

 displacements (vx,vy,vz) for set TIPMARKER and time  0.8000000E+00

         4  2.797822E-05  2.650083E-03  4.117661E-07

 displacements (vx,vy,vz) for set TIPMARKER and time  0.9000000E+00

         4  3.466797E-05  3.678553E-03  5.732772E-07

 displacements (vx,vy,vz) for set TIPMARKER and time  0.1000000E+01

         4  4.158690E-05  4.858658E-03  7.605417E-07

 displacements (vx,vy,vz) for set TIPMARKER and time  0.1100000E+01

         4  4.847480E-05  6.137776E-03  9.678952E-07

 displacements (vx,vy,vz) for set TIPMARKER and time  0.1200000E+01

         4  5.509207E-05  7.455717E-03  1.184973E-06

 displacements (vx,vy,vz) for set TIPMARKER and time  0.1300000E+01

         4  6.119288E-05  8.741512E-03  1.398977E-06

 displacements (vx,vy,vz) for set TIPMARKER and time  0.1400000E+01

         4  6.649479E-05  9.913366E-03  1.598055E-06

 displacements (vx,vy,vz) for set TIPMARKER and time  0.1500000E+01

         4  7.075523E-05  1.089545E-02  1.769756E-06

 displacements (vx,vy,vz) for set TIPMARKER and time  0.1600000E+01

         4  7.380402E-05  1.162887E-02  1.901714E-06

 displacements (vx,vy,vz) for set TIPMARKER and time  0.1700000E+01

         4  7.549291E-05  1.206616E-02  1.984855E-06

 displacements (vx,vy,vz) for set TIPMARKER and time  0.1850000E+01

         4  7.490488E-05  1.210764E-02  2.007016E-06

 displacements (vx,vy,vz) for set TIPMARKER and time  0.2075000E+01

         4  7.487402E-05  1.088138E-02  1.833614E-06

 displacements (vx,vy,vz) for set TIPMARKER and time  0.2300000E+01

         4  7.618940E-05  8.508395E-03  1.462218E-06

 displacements (vx,vy,vz) for set TIPMARKER and time  0.2525000E+01

         4  7.902299E-05  5.676715E-03  1.000492E-06

 displacements (vx,vy,vz) for set TIPMARKER and time  0.2750000E+01

         4  8.328971E-05  3.100299E-03  5.720336E-07

 displacements (vx,vy,vz) for set TIPMARKER and time  0.2975000E+01

         4  8.835080E-05  1.243941E-03  2.651659E-07

 displacements (vx,vy,vz) for set TIPMARKER and time  0.3200000E+01

         4  9.300355E-05  2.003838E-04  1.066188E-07

 displacements (vx,vy,vz) for set TIPMARKER and time  0.3425000E+01

         4  9.583898E-05 -2.206380E-04  6.280110E-08

 displacements (vx,vy,vz) for set TIPMARKER and time  0.3650000E+01

         4  9.570980E-05 -2.894850E-04  7.595018E-08

 displacements (vx,vy,vz) for set TIPMARKER and time  0.3875000E+01

         4  9.733224E-05 -1.356845E-04  1.210431E-07

 displacements (vx,vy,vz) for set TIPMARKER and time  0.4100000E+01

         4  1.038640E-04  3.432632E-04  2.075514E-07

 displacements (vx,vy,vz) for set TIPMARKER and time  0.4325000E+01

         4  1.146761E-04  1.394608E-03  3.719003E-07

 displacements (vx,vy,vz) for set TIPMARKER and time  0.4550000E+01

         4  1.286017E-04  3.207705E-03  6.513999E-07

 displacements (vx,vy,vz) for set TIPMARKER and time  0.4775000E+01

         4  1.437398E-04  5.699617E-03  1.045024E-06

 displacements (vx,vy,vz) for set TIPMARKER and time  0.5000000E+01

         4  1.576081E-04  8.431840E-03  1.492074E-06

 displacements (vx,vy,vz) for set TIPMARKER and time  0.5225000E+01

         4  1.675430E-04  1.071832E-02  1.881363E-06

 displacements (vx,vy,vz) for set TIPMARKER and time  0.5450000E+01

         4  1.713549E-04  1.187868E-02  2.094665E-06

 displacements (vx,vy,vz) for set TIPMARKER and time  0.5675000E+01

         4  1.704663E-04  1.153072E-02  2.063303E-06

 displacements (vx,vy,vz) for set TIPMARKER and time  0.5900000E+01

         4  1.708371E-04  9.762941E-03  1.803715E-06

 displacements (vx,vy,vz) for set TIPMARKER and time  0.6125000E+01

         4  1.726379E-04  7.097915E-03  1.391295E-06

 displacements (vx,vy,vz) for set TIPMARKER and time  0.6350000E+01

         4  1.759957E-04  4.267227E-03  9.432290E-07

 displacements (vx,vy,vz) for set TIPMARKER and time  0.6575000E+01

         4  1.806085E-04  1.907424E-03  5.692905E-07

 displacements (vx,vy,vz) for set TIPMARKER and time  0.6800000E+01

         4  1.856061E-04  3.418711E-04  3.295303E-07

 displacements (vx,vy,vz) for set TIPMARKER and time  0.7025000E+01

         4  1.896628E-04 -4.584154E-04  2.199867E-07

 displacements (vx,vy,vz) for set TIPMARKER and time  0.7250000E+01

         4  1.914152E-04 -7.359282E-04  1.941212E-07

 displacements (vx,vy,vz) for set TIPMARKER and time  0.7475000E+01

         4  1.899671E-04 -7.197577E-04  2.020736E-07

 displacements (vx,vy,vz) for set TIPMARKER and time  0.7700000E+01

         4  1.935150E-04 -4.523555E-04  2.492381E-07

 displacements (vx,vy,vz) for set TIPMARKER and time  0.7925000E+01

         4  2.017997E-04  2.356283E-04  3.582568E-07

 displacements (vx,vy,vz) for set TIPMARKER and time  0.8150000E+01

         4  2.139987E-04  1.588029E-03  5.705332E-07

 displacements (vx,vy,vz) for set TIPMARKER and time  0.8375000E+01

         4  2.286560E-04  3.702203E-03  9.082781E-07

 displacements (vx,vy,vz) for set TIPMARKER and time  0.8600000E+01

         4  2.436155E-04  6.359713E-03  1.340726E-06

 displacements (vx,vy,vz) for set TIPMARKER and time  0.8825000E+01

         4  2.562760E-04  9.010807E-03  1.778310E-06

 displacements (vx,vy,vz) for set TIPMARKER and time  0.9050000E+01

         4  2.640734E-04  1.094250E-02  2.100814E-06

 displacements (vx,vy,vz) for set TIPMARKER and time  0.9275000E+01

         4  2.651827E-04  1.156015E-02  2.205712E-06

 displacements (vx,vy,vz) for set TIPMARKER and time  0.9500000E+01

         4  2.647646E-04  1.064504E-02  2.068914E-06

 displacements (vx,vy,vz) for set TIPMARKER and time  0.9725000E+01

         4  2.656464E-04  8.457811E-03  1.736086E-06

 displacements (vx,vy,vz) for set TIPMARKER and time  0.9950000E+01

         4  2.679986E-04  5.626821E-03  1.305447E-06

 displacements (vx,vy,vz) for set TIPMARKER and time  0.1017500E+02

         4  2.718307E-04  2.881001E-03  8.926049E-07

 displacements (vx,vy,vz) for set TIPMARKER and time  0.1040000E+02

         4  2.766359E-04  7.653037E-04  5.824810E-07

 displacements (vx,vy,vz) for set TIPMARKER and time  0.1062500E+02

         4  2.813752E-04 -5.214231E-04  4.015546E-07

 displacements (vx,vy,vz) for set TIPMARKER and time  0.1085000E+02

         4  2.846612E-04 -1.098967E-03  3.225596E-07

 displacements (vx,vy,vz) for set TIPMARKER and time  0.1107500E+02

         4  2.852729E-04 -1.227145E-03  2.965520E-07

 displacements (vx,vy,vz) for set TIPMARKER and time  0.1130000E+02

         4  2.857284E-04 -1.087183E-03  3.011157E-07

 displacements (vx,vy,vz) for set TIPMARKER and time  0.1152500E+02

         4  2.911996E-04 -6.514714E-04  3.587100E-07

 displacements (vx,vy,vz) for set TIPMARKER and time  0.1175000E+02

         4  3.011234E-04  2.838472E-04  5.069955E-07

 displacements (vx,vy,vz) for set TIPMARKER and time  0.1197500E+02

         4  3.144548E-04  1.925911E-03  7.816592E-07

 displacements (vx,vy,vz) for set TIPMARKER and time  0.1220000E+02

         4  3.294650E-04  4.272318E-03  1.178196E-06

 displacements (vx,vy,vz) for set TIPMARKER and time  0.1242500E+02

         4  3.438210E-04  6.986376E-03  1.632409E-06

 displacements (vx,vy,vz) for set TIPMARKER and time  0.1265000E+02

         4  3.548807E-04  9.445135E-03  2.033218E-06

 displacements (vx,vy,vz) for set TIPMARKER and time  0.1287500E+02

         4  3.603066E-04  1.095259E-02  2.263851E-06

 displacements (vx,vy,vz) for set TIPMARKER and time  0.1310000E+02

         4  3.591890E-04  1.102388E-02  2.252434E-06

 displacements (vx,vy,vz) for set TIPMARKER and time  0.1332500E+02

         4  3.592916E-04  9.601997E-03  2.021628E-06

 displacements (vx,vy,vz) for set TIPMARKER and time  0.1355000E+02

         4  3.607130E-04  7.090674E-03  1.642166E-06

 displacements (vx,vy,vz) for set TIPMARKER and time  0.1377500E+02

         4  3.635929E-04  4.183720E-03  1.222748E-06

 displacements (vx,vy,vz) for set TIPMARKER and time  0.1400000E+02

         4  3.677853E-04  1.579276E-03  8.629261E-07

 displacements (vx,vy,vz) for set TIPMARKER and time  0.1422500E+02

         4  3.726114E-04 -2.767277E-04  6.156130E-07

 displacements (vx,vy,vz) for set TIPMARKER and time  0.1445000E+02

         4  3.768994E-04 -1.294092E-03  4.771245E-07

 displacements (vx,vy,vz) for set TIPMARKER and time  0.1467500E+02

         4  3.792875E-04 -1.657905E-03  4.081276E-07

 displacements (vx,vy,vz) for set TIPMARKER and time  0.1490000E+02

         4  3.787222E-04 -1.626748E-03  3.711031E-07

 displacements (vx,vy,vz) for set TIPMARKER and time  0.1512500E+02

         4  3.812136E-04 -1.332144E-03  3.780954E-07

 displacements (vx,vy,vz) for set TIPMARKER and time  0.1535000E+02

         4  3.885274E-04 -6.950954E-04  4.645596E-07

 displacements (vx,vy,vz) for set TIPMARKER and time  0.1557500E+02

         4  3.999023E-04  4.960717E-04  6.720696E-07

 displacements (vx,vy,vz) for set TIPMARKER and time  0.1580000E+02

         4  4.140521E-04  2.392519E-03  1.016779E-06

 displacements (vx,vy,vz) for set TIPMARKER and time  0.1602500E+02

         4  4.290236E-04  4.891672E-03  1.460468E-06

 displacements (vx,vy,vz) for set TIPMARKER and time  0.1625000E+02

         4  4.423686E-04  7.561067E-03  1.908980E-06

 displacements (vx,vy,vz) for set TIPMARKER and time  0.1647500E+02

         4  4.515075E-04  9.738900E-03  2.242462E-06

 displacements (vx,vy,vz) for set TIPMARKER and time  0.1670000E+02

         4  4.543924E-04  1.077791E-02  2.363129E-06

 displacements (vx,vy,vz) for set TIPMARKER and time  0.1692500E+02

         4  4.538246E-04  1.031888E-02  2.246301E-06

 displacements (vx,vy,vz) for set TIPMARKER and time  0.1715000E+02

         4  4.544719E-04  8.456744E-03  1.944274E-06

 displacements (vx,vy,vz) for set TIPMARKER and time  0.1737500E+02

         4  4.564311E-04  5.709548E-03  1.549242E-06

 displacements (vx,vy,vz) for set TIPMARKER and time  0.1760000E+02

         4  4.597742E-04  2.803121E-03  1.164936E-06

 displacements (vx,vy,vz) for set TIPMARKER and time  0.1782500E+02

         4  4.641890E-04  3.828234E-04  8.641943E-07

 displacements (vx,vy,vz) for set TIPMARKER and time  0.1805000E+02

         4  4.688570E-04 -1.204560E-03  6.671644E-07

 displacements (vx,vy,vz) for set TIPMARKER and time  0.1827500E+02

         4  4.725230E-04 -1.961313E-03  5.497098E-07

 displacements (vx,vy,vz) for set TIPMARKER and time  0.1850000E+02

         4  4.739123E-04 -2.116486E-03  4.747671E-07

 displacements (vx,vy,vz) for set TIPMARKER and time  0.1872500E+02

         4  4.733178E-04 -1.914800E-03  4.296486E-07

 displacements (vx,vy,vz) for set TIPMARKER and time  0.1895000E+02

         4  4.778126E-04 -1.442038E-03  4.548809E-07

 displacements (vx,vy,vz) for set TIPMARKER and time  0.1917500E+02

         4  4.868352E-04 -5.849787E-04  5.923778E-07

 displacements (vx,vy,vz) for set TIPMARKER and time  0.1940000E+02

         4  4.994231E-04  8.543748E-04  8.732011E-07

 displacements (vx,vy,vz) for set TIPMARKER and time  0.1962500E+02

         4  5.140498E-04  2.958999E-03  1.283367E-06

 displacements (vx,vy,vz) for set TIPMARKER and time  0.1985000E+02

         4  5.285966E-04  5.531165E-03  1.750218E-06

 displacements (vx,vy,vz) for set TIPMARKER and time  0.2007500E+02

         4  5.405578E-04  8.064820E-03  2.160038E-06

 displacements (vx,vy,vz) for set TIPMARKER and time  0.2030000E+02

         4  5.475146E-04  9.890624E-03  2.400166E-06

 displacements (vx,vy,vz) for set TIPMARKER and time  0.2052500E+02

         4  5.477551E-04  1.043509E-02  2.404638E-06

 displacements (vx,vy,vz) for set TIPMARKER and time  0.2075000E+02

         4  5.477474E-04  9.472325E-03  2.198765E-06

 displacements (vx,vy,vz) for set TIPMARKER and time  0.2097500E+02

         4  5.489374E-04  7.236880E-03  1.855655E-06

 displacements (vx,vy,vz) for set TIPMARKER and time  0.2120000E+02

         4  5.514036E-04  4.334474E-03  1.473717E-06

 displacements (vx,vy,vz) for set TIPMARKER and time  0.2142500E+02

         4  5.551171E-04  1.496232E-03  1.138013E-06

 displacements (vx,vy,vz) for set TIPMARKER and time  0.2165000E+02

         4  5.596162E-04 -7.007950E-04  8.898170E-07

 displacements (vx,vy,vz) for set TIPMARKER and time  0.2187500E+02

         4  5.639575E-04 -2.008647E-03  7.230406E-07

 displacements (vx,vy,vz) for set TIPMARKER and time  0.2210000E+02

         4  5.668646E-04 -2.508499E-03  6.069364E-07

 displacements (vx,vy,vz) for set TIPMARKER and time  0.2232500E+02

         4  5.671840E-04 -2.457004E-03  5.197738E-07

 displacements (vx,vy,vz) for set TIPMARKER and time  0.2255000E+02

         4  5.686865E-04 -2.077271E-03  4.839973E-07

 displacements (vx,vy,vz) for set TIPMARKER and time  0.2288750E+02

         4  5.815362E-04 -8.305280E-04  6.506842E-07

 displacements (vx,vy,vz) for set TIPMARKER and time  0.2322500E+02

         4  6.017159E-04  1.605747E-03  1.142368E-06

 displacements (vx,vy,vz) for set TIPMARKER and time  0.2356250E+02

         4  6.233257E-04  5.182392E-03  1.840679E-06

 displacements (vx,vy,vz) for set TIPMARKER and time  0.2390000E+02

         4  6.387054E-04  8.656227E-03  2.401044E-06

 displacements (vx,vy,vz) for set TIPMARKER and time  0.2423750E+02

         4  6.408424E-04  1.006716E-02  2.498016E-06

 displacements (vx,vy,vz) for set TIPMARKER and time  0.2457500E+02

         4  6.422319E-04  8.273503E-03  2.111033E-06

 displacements (vx,vy,vz) for set TIPMARKER and time  0.2491250E+02

         4  6.457000E-04  3.995816E-03  1.488849E-06

 displacements (vx,vy,vz) for set TIPMARKER and time  0.2525000E+02

         4  6.508088E-04 -5.818913E-04  9.570165E-07

 displacements (vx,vy,vz) for set TIPMARKER and time  0.2558750E+02

         4  6.563113E-04 -3.382443E-03  6.811633E-07

 displacements (vx,vy,vz) for set TIPMARKER and time  0.2592500E+02

         4  6.593665E-04 -3.749907E-03  6.134811E-07

 displacements (vx,vy,vz) for set TIPMARKER and time  0.2626250E+02

         4  6.620536E-04 -2.408047E-03  6.526232E-07

 displacements (vx,vy,vz) for set TIPMARKER and time  0.2660000E+02

         4  6.755109E-04 -3.980858E-04  8.279593E-07

 displacements (vx,vy,vz) for set TIPMARKER and time  0.2693750E+02

         4  6.951866E-04  1.879687E-03  1.211158E-06

 displacements (vx,vy,vz) for set TIPMARKER and time  0.2727500E+02

         4  7.155282E-04  4.534750E-03  1.792152E-06

 displacements (vx,vy,vz) for set TIPMARKER and time  0.2761250E+02

         4  7.303653E-04  7.302446E-03  2.356991E-06

 displacements (vx,vy,vz) for set TIPMARKER and time  0.2795000E+02

         4  7.338784E-04  9.045794E-03  2.584130E-06

 displacements (vx,vy,vz) for set TIPMARKER and time  0.2828750E+02

         4  7.364911E-04  8.382595E-03  2.331148E-06

 displacements (vx,vy,vz) for set TIPMARKER and time  0.2862500E+02

         4  7.410262E-04  4.985920E-03  1.722454E-06

 displacements (vx,vy,vz) for set TIPMARKER and time  0.2896250E+02

         4  7.457912E-04  2.068705E-04  1.080847E-06

 displacements (vx,vy,vz) for set TIPMARKER and time  0.2930000E+02

         4  7.498695E-04 -3.659478E-03  6.908732E-07

 displacements (vx,vy,vz) for set TIPMARKER and time  0.2963750E+02

         4  7.520531E-04 -4.919404E-03  6.157353E-07

 displacements (vx,vy,vz) for set TIPMARKER and time  0.2997500E+02

         4  7.539962E-04 -3.498061E-03  7.436581E-07

 displacements (vx,vy,vz) for set TIPMARKER and time  0.3000000E+02

         4  7.543608E-04 -3.306104E-03  7.573009E-07
