
 displacements (vx,vy,vz) for set TIPMARKER and time  0.1000000E+00

         4  6.667961E-07  1.708985E-05  5.400229E-09

 displacements (vx,vy,vz) for set TIPMARKER and time  0.2000000E+00

         4  2.662146E-06  8.083534E-05  1.659853E-08

 displacements (vx,vy,vz) for set TIPMARKER and time  0.3000000E+00

         4  5.867939E-06  2.197133E-04  3.812048E-08

 displacements (vx,vy,vz) for set TIPMARKER and time  0.4000000E+00

         4  1.013559E-05  4.708871E-04  7.816052E-08

 displacements (vx,vy,vz) for set TIPMARKER and time  0.5000000E+00

         4  1.532755E-05  8.839552E-04  1.417709E-07

 displacements (vx,vy,vz) for set TIPMARKER and time  0.6000000E+00

         4  2.125932E-05  1.498518E-03  2.336052E-07

 displacements (vx,vy,vz) for set TIPMARKER and time  0.7000000E+00

         4  2.761620E-05  2.323622E-03  3.592703E-07

 displacements (vx,vy,vz) for set TIPMARKER and time  0.8000000E+00

         4  3.408000E-05  3.350887E-03  5.192365E-07

 displacements (vx,vy,vz) for set TIPMARKER and time  0.9000000E+00

         4  4.035648E-05  4.553169E-03  7.077457E-07

 displacements (vx,vy,vz) for set TIPMARKER and time  0.1000000E+01

         4  4.605921E-05  5.862960E-03  9.159232E-07

 displacements (vx,vy,vz) for set TIPMARKER and time  0.1100000E+01

         4  5.078366E-05  7.183962E-03  1.132206E-06

 displacements (vx,vy,vz) for set TIPMARKER and time  0.1200000E+01

         4  5.420989E-05  8.412620E-03  1.338964E-06

 displacements (vx,vy,vz) for set TIPMARKER and time  0.1300000E+01

         4  5.606231E-05  9.436994E-03  1.516134E-06

 displacements (vx,vy,vz) for set TIPMARKER and time  0.1450000E+01

         4  5.794408E-05  1.032021E-02  1.692565E-06

 displacements (vx,vy,vz) for set TIPMARKER and time  0.1675000E+01

         4  6.214114E-05  9.703039E-03  1.674356E-06

 displacements (vx,vy,vz) for set TIPMARKER and time  0.1900000E+01

         4  6.531569E-05  6.725072E-03  1.266114E-06

 displacements (vx,vy,vz) for set TIPMARKER and time  0.2125000E+01

         4  6.624288E-05  2.187396E-03  5.628707E-07

 displacements (vx,vy,vz) for set TIPMARKER and time  0.2350000E+01

         4  6.497137E-05 -2.301400E-03 -1.886119E-07

 displacements (vx,vy,vz) for set TIPMARKER and time  0.2575000E+01

         4  6.245162E-05 -4.969661E-03 -6.936241E-07

 displacements (vx,vy,vz) for set TIPMARKER and time  0.2800000E+01

         4  6.371889E-05 -4.686195E-03 -7.237086E-07

 displacements (vx,vy,vz) for set TIPMARKER and time  0.3025000E+01

         4  7.571012E-05 -1.462635E-03 -2.353639E-07

 displacements (vx,vy,vz) for set TIPMARKER and time  0.3250000E+01

         4  9.428951E-05  3.495521E-03  5.828113E-07

 displacements (vx,vy,vz) for set TIPMARKER and time  0.3475000E+01

         4  1.132180E-04  8.306705E-03  1.413238E-06

 displacements (vx,vy,vz) for set TIPMARKER and time  0.3700000E+01

         4  1.263608E-04  1.122571E-02  1.942210E-06

 displacements (vx,vy,vz) for set TIPMARKER and time  0.3925000E+01

         4  1.296201E-04  1.134358E-02  2.000081E-06

 displacements (vx,vy,vz) for set TIPMARKER and time  0.4150000E+01

         4  1.257726E-04  8.915294E-03  1.625189E-06

 displacements (vx,vy,vz) for set TIPMARKER and time  0.4375000E+01

         4  1.243875E-04  5.127733E-03  1.031491E-06

 displacements (vx,vy,vz) for set TIPMARKER and time  0.4600000E+01

         4  1.262531E-04  1.481685E-03  4.666943E-07

 displacements (vx,vy,vz) for set TIPMARKER and time  0.4825000E+01

         4  1.308167E-04 -8.702836E-04  1.139487E-07

 displacements (vx,vy,vz) for set TIPMARKER and time  0.5050000E+01

         4  1.360978E-04 -1.545094E-03  2.676256E-08

 displacements (vx,vy,vz) for set TIPMARKER and time  0.5275000E+01

         4  1.394476E-04 -8.906002E-04  1.328638E-07

 displacements (vx,vy,vz) for set TIPMARKER and time  0.5500000E+01

         4  1.417259E-04  3.888765E-04  3.119388E-07

 displacements (vx,vy,vz) for set TIPMARKER and time  0.5725000E+01

         4  1.500669E-04  1.697836E-03  4.906372E-07

 displacements (vx,vy,vz) for set TIPMARKER and time  0.5950000E+01

         4  1.621703E-04  2.851744E-03  6.457483E-07

 displacements (vx,vy,vz) for set TIPMARKER and time  0.6175000E+01

         4  1.752235E-04  4.026960E-03  8.210368E-07

 displacements (vx,vy,vz) for set TIPMARKER and time  0.6400000E+01

         4  1.862957E-04  5.454939E-03  1.066392E-06

 displacements (vx,vy,vz) for set TIPMARKER and time  0.6625000E+01

         4  1.925717E-04  7.066243E-03  1.368112E-06

 displacements (vx,vy,vz) for set TIPMARKER and time  0.6850000E+01

         4  1.942768E-04  8.334826E-03  1.631862E-06

 displacements (vx,vy,vz) for set TIPMARKER and time  0.7075000E+01

         4  1.989142E-04  8.477617E-03  1.726922E-06

 displacements (vx,vy,vz) for set TIPMARKER and time  0.7300000E+01

         4  2.039772E-04  6.900000E-03  1.524180E-06

 displacements (vx,vy,vz) for set TIPMARKER and time  0.7525000E+01

         4  2.071075E-04  3.649662E-03  1.012254E-06

 displacements (vx,vy,vz) for set TIPMARKER and time  0.7750000E+01

         4  2.071411E-04 -4.012514E-04  3.334763E-07

 displacements (vx,vy,vz) for set TIPMARKER and time  0.7975000E+01

         4  2.042778E-04 -3.804299E-03 -2.579840E-07

 displacements (vx,vy,vz) for set TIPMARKER and time  0.8200000E+01

         4  2.016668E-04 -5.118752E-03 -5.032319E-07

 displacements (vx,vy,vz) for set TIPMARKER and time  0.8425000E+01

         4  2.098539E-04 -3.587249E-03 -2.474128E-07

 displacements (vx,vy,vz) for set TIPMARKER and time  0.8650000E+01

         4  2.263980E-04  4.401174E-04  4.352910E-07

 displacements (vx,vy,vz) for set TIPMARKER and time  0.8875000E+01

         4  2.459837E-04  5.571794E-03  1.289002E-06

 displacements (vx,vy,vz) for set TIPMARKER and time  0.9100000E+01

         4  2.621845E-04  9.912465E-03  1.984885E-06

 displacements (vx,vy,vz) for set TIPMARKER and time  0.9325000E+01

         4  2.695475E-04  1.185273E-02  2.263644E-06

 displacements (vx,vy,vz) for set TIPMARKER and time  0.9550000E+01

         4  2.668553E-04  1.074087E-02  2.047339E-06

 displacements (vx,vy,vz) for set TIPMARKER and time  0.9775000E+01

         4  2.649181E-04  7.128206E-03  1.482901E-06

 displacements (vx,vy,vz) for set TIPMARKER and time  0.1000000E+02

         4  2.647274E-04  2.483530E-03  8.136805E-07

 displacements (vx,vy,vz) for set TIPMARKER and time  0.1022500E+02

         4  2.667033E-04 -1.482391E-03  2.902526E-07

 displacements (vx,vy,vz) for set TIPMARKER and time  0.1045000E+02

         4  2.702818E-04 -3.532754E-03  6.117673E-08

 displacements (vx,vy,vz) for set TIPMARKER and time  0.1067500E+02

         4  2.737587E-04 -3.331574E-03  1.254304E-07

 displacements (vx,vy,vz) for set TIPMARKER and time  0.1090000E+02

         4  2.758005E-04 -1.421813E-03  3.675736E-07

 displacements (vx,vy,vz) for set TIPMARKER and time  0.1112500E+02

         4  2.852040E-04  1.180889E-03  6.666486E-07

 displacements (vx,vy,vz) for set TIPMARKER and time  0.1135000E+02

         4  2.986990E-04  3.526455E-03  9.180338E-07

 displacements (vx,vy,vz) for set TIPMARKER and time  0.1157500E+02

         4  3.124952E-04  5.119962E-03  1.103063E-06

 displacements (vx,vy,vz) for set TIPMARKER and time  0.1180000E+02

         4  3.233245E-04  5.982569E-03  1.264511E-06

 displacements (vx,vy,vz) for set TIPMARKER and time  0.1202500E+02

         4  3.287410E-04  6.403428E-03  1.442524E-06

 displacements (vx,vy,vz) for set TIPMARKER and time  0.1225000E+02

         4  3.276618E-04  6.583346E-03  1.616467E-06

 displacements (vx,vy,vz) for set TIPMARKER and time  0.1247500E+02

         4  3.309315E-04  6.413306E-03  1.723204E-06

 displacements (vx,vy,vz) for set TIPMARKER and time  0.1270000E+02

         4  3.366757E-04  5.536647E-03  1.637893E-06

 displacements (vx,vy,vz) for set TIPMARKER and time  0.1292500E+02

         4  3.420726E-04  3.657176E-03  1.289967E-06

 displacements (vx,vy,vz) for set TIPMARKER and time  0.1315000E+02

         4  3.447327E-04  8.954415E-04  7.319790E-07

 displacements (vx,vy,vz) for set TIPMARKER and time  0.1337500E+02

         4  3.434703E-04 -2.046190E-03  1.455358E-07

 displacements (vx,vy,vz) for set TIPMARKER and time  0.1360000E+02

         4  3.388218E-04 -4.056503E-03 -2.283180E-07

 displacements (vx,vy,vz) for set TIPMARKER and time  0.1382500E+02

         4  3.433423E-04 -4.091349E-03 -1.733390E-07

 displacements (vx,vy,vz) for set TIPMARKER and time  0.1405000E+02

         4  3.565435E-04 -1.727720E-03  3.346501E-07

 displacements (vx,vy,vz) for set TIPMARKER and time  0.1427500E+02

         4  3.746486E-04  2.501854E-03  1.127190E-06

 displacements (vx,vy,vz) for set TIPMARKER and time  0.1450000E+02

         4  3.920683E-04  7.199089E-03  1.905798E-06

 displacements (vx,vy,vz) for set TIPMARKER and time  0.1472500E+02

         4  4.029234E-04  1.061689E-02  2.368984E-06

 displacements (vx,vy,vz) for set TIPMARKER and time  0.1495000E+02

         4  4.032452E-04  1.138814E-02  2.343902E-06

 displacements (vx,vy,vz) for set TIPMARKER and time  0.1517500E+02

         4  4.026606E-04  9.137625E-03  1.885858E-06

 displacements (vx,vy,vz) for set TIPMARKER and time  0.1540000E+02

         4  4.022580E-04  4.673036E-03  1.194845E-06

 displacements (vx,vy,vz) for set TIPMARKER and time  0.1562500E+02

         4  4.024678E-04 -3.509341E-04  5.425570E-07

 displacements (vx,vy,vz) for set TIPMARKER and time  0.1585000E+02

         4  4.036807E-04 -4.131076E-03  1.514557E-07

 displacements (vx,vy,vz) for set TIPMARKER and time  0.1607500E+02

         4  4.054885E-04 -5.449744E-03  1.058817E-07

 displacements (vx,vy,vz) for set TIPMARKER and time  0.1630000E+02

         4  4.068185E-04 -4.110714E-03  3.380976E-07

 displacements (vx,vy,vz) for set TIPMARKER and time  0.1652500E+02

         4  4.160785E-04 -9.099037E-04  7.158747E-07

 displacements (vx,vy,vz) for set TIPMARKER and time  0.1675000E+02

         4  4.311520E-04  2.807742E-03  1.079836E-06

 displacements (vx,vy,vz) for set TIPMARKER and time  0.1697500E+02

         4  4.471333E-04  5.770620E-03  1.338494E-06

 displacements (vx,vy,vz) for set TIPMARKER and time  0.1720000E+02

         4  4.595753E-04  7.267945E-03  1.491524E-06

 displacements (vx,vy,vz) for set TIPMARKER and time  0.1742500E+02

         4  4.653843E-04  7.295665E-03  1.589630E-06

 displacements (vx,vy,vz) for set TIPMARKER and time  0.1765000E+02

         4  4.634983E-04  6.344293E-03  1.668161E-06

 displacements (vx,vy,vz) for set TIPMARKER and time  0.1787500E+02

         4  4.639431E-04  5.001093E-03  1.727290E-06

 displacements (vx,vy,vz) for set TIPMARKER and time  0.1810000E+02

         4  4.682994E-04  3.615733E-03  1.686213E-06

 displacements (vx,vy,vz) for set TIPMARKER and time  0.1832500E+02

         4  4.743956E-04  2.207987E-03  1.457466E-06

 displacements (vx,vy,vz) for set TIPMARKER and time  0.1855000E+02

         4  4.794489E-04  6.456993E-04  1.028849E-06

 displacements (vx,vy,vz) for set TIPMARKER and time  0.1877500E+02

         4  4.810272E-04 -1.053737E-03  5.050514E-07

 displacements (vx,vy,vz) for set TIPMARKER and time  0.1900000E+02

         4  4.782377E-04 -2.518507E-03  8.248076E-08

 displacements (vx,vy,vz) for set TIPMARKER and time  0.1922500E+02

         4  4.807400E-04 -3.081916E-03 -1.344271E-08

 displacements (vx,vy,vz) for set TIPMARKER and time  0.1945000E+02

         4  4.909246E-04 -2.112471E-03  3.180558E-07

 displacements (vx,vy,vz) for set TIPMARKER and time  0.1967500E+02

         4  5.063539E-04  5.597434E-04  9.970503E-07

 displacements (vx,vy,vz) for set TIPMARKER and time  0.1990000E+02

         4  5.228310E-04  4.369073E-03  1.784734E-06

 displacements (vx,vy,vz) for set TIPMARKER and time  0.2012500E+02

         4  5.351891E-04  8.086882E-03  2.378190E-06

 displacements (vx,vy,vz) for set TIPMARKER and time  0.2035000E+02

         4  5.390379E-04  1.026078E-02  2.541994E-06

 displacements (vx,vy,vz) for set TIPMARKER and time  0.2057500E+02

         4  5.405506E-04  9.850302E-03  2.234940E-06

 displacements (vx,vy,vz) for set TIPMARKER and time  0.2080000E+02

         4  5.417940E-04  6.753805E-03  1.592195E-06

 displacements (vx,vy,vz) for set TIPMARKER and time  0.2102500E+02

         4  5.422361E-04  1.942754E-03  8.681216E-07

 displacements (vx,vy,vz) for set TIPMARKER and time  0.2125000E+02

         4  5.421074E-04 -2.883908E-03  3.288489E-07

 displacements (vx,vy,vz) for set TIPMARKER and time  0.2147500E+02

         4  5.417721E-04 -5.982500E-03  1.378285E-07

 displacements (vx,vy,vz) for set TIPMARKER and time  0.2170000E+02

         4  5.413838E-04 -6.274217E-03  2.986149E-07

 displacements (vx,vy,vz) for set TIPMARKER and time  0.2192500E+02

         4  5.483286E-04 -3.769047E-03  6.996448E-07

 displacements (vx,vy,vz) for set TIPMARKER and time  0.2215000E+02

         4  5.634914E-04  4.805007E-04  1.159414E-06

 displacements (vx,vy,vz) for set TIPMARKER and time  0.2237500E+02

         4  5.816296E-04  4.866388E-03  1.521984E-06

 displacements (vx,vy,vz) for set TIPMARKER and time  0.2260000E+02

         4  5.970552E-04  7.907187E-03  1.725339E-06

 displacements (vx,vy,vz) for set TIPMARKER and time  0.2282500E+02

         4  6.052719E-04  8.809833E-03  1.796615E-06

 displacements (vx,vy,vz) for set TIPMARKER and time  0.2305000E+02

         4  6.042916E-04  7.669411E-03  1.797542E-06

 displacements (vx,vy,vz) for set TIPMARKER and time  0.2327500E+02

         4  6.020597E-04  5.264338E-03  1.780885E-06

 displacements (vx,vy,vz) for set TIPMARKER and time  0.2350000E+02

         4  6.036703E-04  2.595732E-03  1.727160E-06

 displacements (vx,vy,vz) for set TIPMARKER and time  0.2372500E+02

         4  6.083463E-04  4.234109E-04  1.564917E-06

 displacements (vx,vy,vz) for set TIPMARKER and time  0.2395000E+02

         4  6.140139E-04 -9.652774E-04  1.247716E-06

 displacements (vx,vy,vz) for set TIPMARKER and time  0.2417500E+02

         4  6.179586E-04 -1.680038E-03  8.142141E-07

 displacements (vx,vy,vz) for set TIPMARKER and time  0.2440000E+02

         4  6.180869E-04 -1.944296E-03  4.009861E-07

 displacements (vx,vy,vz) for set TIPMARKER and time  0.2462500E+02

         4  6.205261E-04 -1.818115E-03  2.100637E-07

 displacements (vx,vy,vz) for set TIPMARKER and time  0.2485000E+02

         4  6.294353E-04 -1.117362E-03  3.873276E-07

 displacements (vx,vy,vz) for set TIPMARKER and time  0.2507500E+02

         4  6.427627E-04  4.201114E-04  9.285015E-07

 displacements (vx,vy,vz) for set TIPMARKER and time  0.2530000E+02

         4  6.573247E-04  2.823969E-03  1.667608E-06

 displacements (vx,vy,vz) for set TIPMARKER and time  0.2552500E+02

         4  6.691558E-04  5.650062E-03  2.331888E-06

 displacements (vx,vy,vz) for set TIPMARKER and time  0.2575000E+02

         4  6.744889E-04  7.992907E-03  2.655760E-06

 displacements (vx,vy,vz) for set TIPMARKER and time  0.2597500E+02

         4  6.770594E-04  8.807857E-03  2.516624E-06

 displacements (vx,vy,vz) for set TIPMARKER and time  0.2620000E+02

         4  6.804213E-04  7.417858E-03  1.975034E-06

 displacements (vx,vy,vz) for set TIPMARKER and time  0.2642500E+02

         4  6.828362E-04  3.937192E-03  1.239097E-06

 displacements (vx,vy,vz) for set TIPMARKER and time  0.2665000E+02

         4  6.834177E-04 -6.288518E-04  5.862461E-07

 displacements (vx,vy,vz) for set TIPMARKER and time  0.2687500E+02

         4  6.822033E-04 -4.700295E-03  2.412234E-07

 displacements (vx,vy,vz) for set TIPMARKER and time  0.2710000E+02

         4  6.798811E-04 -6.741438E-03  2.850289E-07

 displacements (vx,vy,vz) for set TIPMARKER and time  0.2732500E+02

         4  6.828617E-04 -5.911773E-03  6.528131E-07

 displacements (vx,vy,vz) for set TIPMARKER and time  0.2755000E+02

         4  6.958487E-04 -2.450791E-03  1.172418E-06

 displacements (vx,vy,vz) for set TIPMARKER and time  0.2777500E+02

         4  7.144414E-04  2.394960E-03  1.642540E-06

 displacements (vx,vy,vz) for set TIPMARKER and time  0.2800000E+02

         4  7.325679E-04  6.878727E-03  1.935990E-06

 displacements (vx,vy,vz) for set TIPMARKER and time  0.2822500E+02

         4  7.444353E-04  9.462023E-03  2.032575E-06

 displacements (vx,vy,vz) for set TIPMARKER and time  0.2845000E+02

         4  7.464247E-04  9.406785E-03  1.990196E-06

 displacements (vx,vy,vz) for set TIPMARKER and time  0.2867500E+02

         4  7.432255E-04  6.999774E-03  1.894784E-06

 displacements (vx,vy,vz) for set TIPMARKER and time  0.2890000E+02

         4  7.424772E-04  3.330027E-03  1.790350E-06

 displacements (vx,vy,vz) for set TIPMARKER and time  0.2912500E+02

         4  7.445927E-04 -2.439504E-04  1.643913E-06

 displacements (vx,vy,vz) for set TIPMARKER and time  0.2935000E+02

         4  7.488030E-04 -2.664025E-03  1.404484E-06

 displacements (vx,vy,vz) for set TIPMARKER and time  0.2957500E+02

         4  7.532100E-04 -3.514354E-03  1.064607E-06

 displacements (vx,vy,vz) for set TIPMARKER and time  0.2980000E+02

         4  7.555254E-04 -3.009941E-03  6.998276E-07

 displacements (vx,vy,vz) for set TIPMARKER and time  0.3000000E+02

         4  7.576393E-04 -1.874489E-03  4.762360E-07
