
 displacements (vx,vy,vz) for set TIPMARKER and time  0.1000000E+00

         4 -1.023063E-07  1.314293E-10 -1.285001E-10

 displacements (vx,vy,vz) for set TIPMARKER and time  0.2000000E+00

         4 -2.047598E-07  2.629148E-10 -2.569976E-10

 displacements (vx,vy,vz) for set TIPMARKER and time  0.3500000E+00

         4 -3.581123E-07  4.588071E-10 -4.479405E-10

 displacements (vx,vy,vz) for set TIPMARKER and time  0.5000000E+00

         4 -5.117998E-07  6.537373E-10 -6.389198E-10

 displacements (vx,vy,vz) for set TIPMARKER and time  0.6500000E+00

         4 -6.651027E-07  8.498908E-10 -8.309504E-10

 displacements (vx,vy,vz) for set TIPMARKER and time  0.8750000E+00

         4 -8.955484E-07  1.144118E-09 -1.118498E-09

 displacements (vx,vy,vz) for set TIPMARKER and time  0.1212500E+01

         4 -1.240699E-06  1.592265E-09 -1.556698E-09

 displacements (vx,vy,vz) for set TIPMARKER and time  0.1718750E+01

         4 -1.758836E-06  2.264778E-09 -2.213926E-09

 displacements (vx,vy,vz) for set TIPMARKER and time  0.2478125E+01

         4 -2.535522E-06  3.257440E-09 -3.184162E-09

 displacements (vx,vy,vz) for set TIPMARKER and time  0.2762891E+01

         4 -2.826954E-06  3.627491E-09 -3.546143E-09

 displacements (vx,vy,vz) for set TIPMARKER and time  0.2834082E+01

         4 -2.899634E-06  3.719585E-09 -3.636108E-09

 displacements (vx,vy,vz) for set TIPMARKER and time  0.2905273E+01

         4 -2.972627E-06  3.812388E-09 -3.726786E-09

 displacements (vx,vy,vz) for set TIPMARKER and time  0.2931970E+01

         4 -2.999705E-06  3.847516E-09 -3.761191E-09

 displacements (vx,vy,vz) for set TIPMARKER and time  0.2958667E+01

         4 -3.027329E-06  3.882840E-09 -3.795752E-09

 displacements (vx,vy,vz) for set TIPMARKER and time  0.2998712E+01

         4 -3.067931E-06  3.935804E-09 -3.847650E-09

 displacements (vx,vy,vz) for set TIPMARKER and time  0.3013729E+01

         4 -2.289022E-06  2.060677E-06  6.239594E-10

 displacements (vx,vy,vz) for set TIPMARKER and time  0.3028746E+01

         4 -1.427877E-06  7.624210E-06  5.086340E-09

 displacements (vx,vy,vz) for set TIPMARKER and time  0.3043763E+01

         4 -6.385972E-07  1.646348E-05  9.566834E-09

 displacements (vx,vy,vz) for set TIPMARKER and time  0.3047517E+01

         4 -3.602497E-07  1.918772E-05  1.069630E-08

 displacements (vx,vy,vz) for set TIPMARKER and time  0.3051271E+01

         4 -1.920778E-07  2.208681E-05  1.182681E-08

 displacements (vx,vy,vz) for set TIPMARKER and time  0.3056903E+01

         4  1.206586E-07  2.680019E-05  1.351677E-08

 displacements (vx,vy,vz) for set TIPMARKER and time  0.3065350E+01

         4  6.476771E-07  3.464400E-05  1.586826E-08

 displacements (vx,vy,vz) for set TIPMARKER and time  0.3078020E+01

         4  1.326945E-06  4.811092E-05  1.858957E-08

 displacements (vx,vy,vz) for set TIPMARKER and time  0.3097026E+01

         4  2.479014E-06  7.231154E-05  2.161432E-08

 displacements (vx,vy,vz) for set TIPMARKER and time  0.3116032E+01

         4  3.562913E-06  1.022200E-04  2.466964E-08

 displacements (vx,vy,vz) for set TIPMARKER and time  0.3135038E+01

         4  4.745403E-06  1.387673E-04  2.801601E-08

 displacements (vx,vy,vz) for set TIPMARKER and time  0.3154044E+01

         4  5.896793E-06  1.800495E-04  3.190216E-08

 displacements (vx,vy,vz) for set TIPMARKER and time  0.3173049E+01

         4  7.051621E-06  2.218298E-04  3.657049E-08

 displacements (vx,vy,vz) for set TIPMARKER and time  0.3201558E+01

         4  8.707252E-06  2.847005E-04  4.521565E-08

 displacements (vx,vy,vz) for set TIPMARKER and time  0.3230067E+01

         4  1.035997E-05  3.552839E-04  5.727503E-08

 displacements (vx,vy,vz) for set TIPMARKER and time  0.3258576E+01

         4  1.204287E-05  4.394923E-04  7.349090E-08

 displacements (vx,vy,vz) for set TIPMARKER and time  0.3287084E+01

         4  1.373360E-05  5.408475E-04  9.229360E-08

 displacements (vx,vy,vz) for set TIPMARKER and time  0.3315593E+01

         4  1.549457E-05  6.646038E-04  1.119131E-07

 displacements (vx,vy,vz) for set TIPMARKER and time  0.3344102E+01

         4  1.731296E-05  8.164402E-04  1.329979E-07

 displacements (vx,vy,vz) for set TIPMARKER and time  0.3372610E+01

         4  1.926028E-05  9.979194E-04  1.562603E-07

 displacements (vx,vy,vz) for set TIPMARKER and time  0.3401119E+01

         4  2.122094E-05  1.201458E-03  1.814017E-07

 displacements (vx,vy,vz) for set TIPMARKER and time  0.3429628E+01

         4  2.319131E-05  1.419392E-03  2.094592E-07

 displacements (vx,vy,vz) for set TIPMARKER and time  0.3472391E+01

         4  2.612055E-05  1.774030E-03  2.605894E-07

 displacements (vx,vy,vz) for set TIPMARKER and time  0.3515154E+01

         4  2.909368E-05  2.164214E-03  3.233617E-07

 displacements (vx,vy,vz) for set TIPMARKER and time  0.3557917E+01

         4  3.208418E-05  2.596292E-03  3.946210E-07

 displacements (vx,vy,vz) for set TIPMARKER and time  0.3600680E+01

         4  3.524531E-05  3.085236E-03  4.714204E-07

 displacements (vx,vy,vz) for set TIPMARKER and time  0.3643443E+01

         4  3.857268E-05  3.632376E-03  5.531914E-07

 displacements (vx,vy,vz) for set TIPMARKER and time  0.3686206E+01

         4  4.197798E-05  4.217444E-03  6.395391E-07

 displacements (vx,vy,vz) for set TIPMARKER and time  0.3728969E+01

         4  4.534845E-05  4.821254E-03  7.326831E-07

 displacements (vx,vy,vz) for set TIPMARKER and time  0.3771732E+01

         4  4.869892E-05  5.436383E-03  8.349484E-07

 displacements (vx,vy,vz) for set TIPMARKER and time  0.3814496E+01

         4  5.202671E-05  6.062531E-03  9.435254E-07

 displacements (vx,vy,vz) for set TIPMARKER and time  0.3857259E+01

         4  5.540841E-05  6.706678E-03  1.054244E-06

 displacements (vx,vy,vz) for set TIPMARKER and time  0.3900022E+01

         4  5.890684E-05  7.373544E-03  1.164649E-06

 displacements (vx,vy,vz) for set TIPMARKER and time  0.3942785E+01

         4  6.246568E-05  8.048020E-03  1.273399E-06

 displacements (vx,vy,vz) for set TIPMARKER and time  0.3985548E+01

         4  6.595411E-05  8.705662E-03  1.381272E-06

 displacements (vx,vy,vz) for set TIPMARKER and time  0.4049692E+01

         4  7.100534E-05  9.634843E-03  1.544602E-06

 displacements (vx,vy,vz) for set TIPMARKER and time  0.4113837E+01

         4  7.589047E-05  1.049388E-02  1.704538E-06

 displacements (vx,vy,vz) for set TIPMARKER and time  0.4177982E+01

         4  8.075310E-05  1.129559E-02  1.850185E-06

 displacements (vx,vy,vz) for set TIPMARKER and time  0.4242126E+01

         4  8.561451E-05  1.203042E-02  1.977178E-06

 displacements (vx,vy,vz) for set TIPMARKER and time  0.4306271E+01

         4  9.024191E-05  1.265404E-02  2.087948E-06

 displacements (vx,vy,vz) for set TIPMARKER and time  0.4370416E+01

         4  9.454521E-05  1.314706E-02  2.185447E-06

 displacements (vx,vy,vz) for set TIPMARKER and time  0.4434560E+01

         4  9.868405E-05  1.353654E-02  2.266706E-06

 displacements (vx,vy,vz) for set TIPMARKER and time  0.4498705E+01

         4  1.027952E-04  1.385147E-02  2.325333E-06

 displacements (vx,vy,vz) for set TIPMARKER and time  0.4562849E+01

         4  1.068360E-04  1.409238E-02  2.363301E-06

 displacements (vx,vy,vz) for set TIPMARKER and time  0.4626994E+01

         4  1.106661E-04  1.424549E-02  2.388921E-06

 displacements (vx,vy,vz) for set TIPMARKER and time  0.4691139E+01

         4  1.142819E-04  1.432621E-02  2.406699E-06

 displacements (vx,vy,vz) for set TIPMARKER and time  0.4755283E+01

         4  1.179104E-04  1.438718E-02  2.415892E-06

 displacements (vx,vy,vz) for set TIPMARKER and time  0.4819428E+01

         4  1.216655E-04  1.446571E-02  2.415876E-06

 displacements (vx,vy,vz) for set TIPMARKER and time  0.4835464E+01

         4  1.226180E-04  1.448879E-02  2.414736E-06

 displacements (vx,vy,vz) for set TIPMARKER and time  0.4851500E+01

         4  1.235674E-04  1.451274E-02  2.413604E-06

 displacements (vx,vy,vz) for set TIPMARKER and time  0.4875554E+01

         4  1.249880E-04  1.454984E-02  2.412586E-06

 displacements (vx,vy,vz) for set TIPMARKER and time  0.4911636E+01

         4  1.270844E-04  1.460771E-02  2.413615E-06

 displacements (vx,vy,vz) for set TIPMARKER and time  0.4965758E+01

         4  1.302000E-04  1.471276E-02  2.421471E-06

 displacements (vx,vy,vz) for set TIPMARKER and time  0.5046941E+01

         4  1.350938E-04  1.497606E-02  2.445397E-06

 displacements (vx,vy,vz) for set TIPMARKER and time  0.5128124E+01

         4  1.403848E-04  1.540625E-02  2.484006E-06

 displacements (vx,vy,vz) for set TIPMARKER and time  0.5209307E+01

         4  1.458911E-04  1.598813E-02  2.546582E-06

 displacements (vx,vy,vz) for set TIPMARKER and time  0.5290490E+01

         4  1.515167E-04  1.670900E-02  2.621344E-06

 displacements (vx,vy,vz) for set TIPMARKER and time  0.5371673E+01

         4  1.574267E-04  1.759361E-02  2.767695E-06

 displacements (vx,vy,vz) for set TIPMARKER and time  0.5452856E+01

         4  1.637134E-04  1.864284E-02  2.912887E-06

 displacements (vx,vy,vz) for set TIPMARKER and time  0.5534039E+01

         4  1.701478E-04  1.979472E-02  3.079468E-06

 displacements (vx,vy,vz) for set TIPMARKER and time  0.5615222E+01

         4  1.765386E-04  2.098785E-02  3.270335E-06

 displacements (vx,vy,vz) for set TIPMARKER and time  0.5696405E+01

         4  1.829930E-04  2.220630E-02  3.469550E-06

 displacements (vx,vy,vz) for set TIPMARKER and time  0.5777588E+01

         4  1.895353E-04  2.341954E-02  3.667423E-06

 displacements (vx,vy,vz) for set TIPMARKER and time  0.5858771E+01

         4  1.959235E-04  2.455265E-02  3.856661E-06

 displacements (vx,vy,vz) for set TIPMARKER and time  0.5939954E+01

         4  2.019940E-04  2.554782E-02  4.038288E-06

 displacements (vx,vy,vz) for set TIPMARKER and time  0.6021137E+01

         4  2.078460E-04  2.639998E-02  4.198358E-06

 displacements (vx,vy,vz) for set TIPMARKER and time  0.6102320E+01

         4  2.135544E-04  2.710760E-02  4.328774E-06

 displacements (vx,vy,vz) for set TIPMARKER and time  0.6183503E+01

         4  2.189571E-04  2.763916E-02  4.427990E-06

 displacements (vx,vy,vz) for set TIPMARKER and time  0.6264686E+01

         4  2.239729E-04  2.798736E-02  4.504932E-06

 displacements (vx,vy,vz) for set TIPMARKER and time  0.6345869E+01

         4  2.287886E-04  2.820004E-02  4.552374E-06

 displacements (vx,vy,vz) for set TIPMARKER and time  0.6427052E+01

         4  2.335432E-04  2.832622E-02  4.576042E-06

 displacements (vx,vy,vz) for set TIPMARKER and time  0.6508235E+01

         4  2.381723E-04  2.838577E-02  4.579529E-06

 displacements (vx,vy,vz) for set TIPMARKER and time  0.6589418E+01

         4  2.426692E-04  2.841258E-02  4.578786E-06

 displacements (vx,vy,vz) for set TIPMARKER and time  0.6670601E+01

         4  2.472445E-04  2.847858E-02  4.576757E-06

 displacements (vx,vy,vz) for set TIPMARKER and time  0.6751784E+01

         4  2.520569E-04  2.864424E-02  4.576848E-06

 displacements (vx,vy,vz) for set TIPMARKER and time  0.6832967E+01

         4  2.570401E-04  2.892678E-02  4.589456E-06

 displacements (vx,vy,vz) for set TIPMARKER and time  0.6914150E+01

         4  2.621666E-04  2.934230E-02  4.627478E-06

 displacements (vx,vy,vz) for set TIPMARKER and time  0.6995333E+01

         4  2.675833E-04  2.992752E-02  4.696301E-06

 displacements (vx,vy,vz) for set TIPMARKER and time  0.7076516E+01

         4  2.733622E-04  3.069602E-02  4.789151E-06

 displacements (vx,vy,vz) for set TIPMARKER and time  0.7157699E+01

         4  2.793684E-04  3.161518E-02  4.908757E-06

 displacements (vx,vy,vz) for set TIPMARKER and time  0.7279474E+01

         4  2.886040E-04  3.319275E-02  5.145594E-06

 displacements (vx,vy,vz) for set TIPMARKER and time  0.7401248E+01

         4  2.981421E-04  3.492972E-02  5.422302E-06

 displacements (vx,vy,vz) for set TIPMARKER and time  0.7523023E+01

         4  3.077153E-04  3.666407E-02  5.713998E-06

 displacements (vx,vy,vz) for set TIPMARKER and time  0.7553467E+01

         4  3.100560E-04  3.707545E-02  5.787230E-06

 displacements (vx,vy,vz) for set TIPMARKER and time  0.7583910E+01

         4  3.123576E-04  3.747022E-02  5.859883E-06

 displacements (vx,vy,vz) for set TIPMARKER and time  0.7629576E+01

         4  3.157553E-04  3.803047E-02  5.967797E-06

 displacements (vx,vy,vz) for set TIPMARKER and time  0.7698074E+01

         4  3.207678E-04  3.879666E-02  6.123319E-06

 displacements (vx,vy,vz) for set TIPMARKER and time  0.7800821E+01

         4  3.280023E-04  3.974056E-02  6.322354E-06

 displacements (vx,vy,vz) for set TIPMARKER and time  0.7903568E+01

         4  3.347145E-04  4.039303E-02  6.486630E-06

 displacements (vx,vy,vz) for set TIPMARKER and time  0.8006316E+01

         4  3.409514E-04  4.076916E-02  6.637915E-06

 displacements (vx,vy,vz) for set TIPMARKER and time  0.8109063E+01

         4  3.469157E-04  4.093759E-02  6.770066E-06

 displacements (vx,vy,vz) for set TIPMARKER and time  0.8211810E+01

         4  3.526451E-04  4.096111E-02  6.832122E-06

 displacements (vx,vy,vz) for set TIPMARKER and time  0.8314558E+01

         4  3.582188E-04  4.092420E-02  6.832843E-06

 displacements (vx,vy,vz) for set TIPMARKER and time  0.8417305E+01

         4  3.639188E-04  4.095093E-02  6.838589E-06

 displacements (vx,vy,vz) for set TIPMARKER and time  0.8520052E+01

         4  3.699207E-04  4.114080E-02  6.832691E-06

 displacements (vx,vy,vz) for set TIPMARKER and time  0.8622799E+01

         4  3.762248E-04  4.154726E-02  6.793521E-06

 displacements (vx,vy,vz) for set TIPMARKER and time  0.8725547E+01

         4  3.829279E-04  4.221697E-02  6.789006E-06

 displacements (vx,vy,vz) for set TIPMARKER and time  0.8828294E+01

         4  3.901290E-04  4.316880E-02  6.851018E-06

 displacements (vx,vy,vz) for set TIPMARKER and time  0.8931041E+01

         4  3.976936E-04  4.435307E-02  6.933301E-06

 displacements (vx,vy,vz) for set TIPMARKER and time  0.9033788E+01

         4  4.054515E-04  4.568882E-02  7.043747E-06

 displacements (vx,vy,vz) for set TIPMARKER and time  0.9136536E+01

         4  4.133437E-04  4.709639E-02  7.236565E-06

 displacements (vx,vy,vz) for set TIPMARKER and time  0.9239283E+01

         4  4.212027E-04  4.846958E-02  7.481650E-06

 displacements (vx,vy,vz) for set TIPMARKER and time  0.9342030E+01

         4  4.287760E-04  4.968963E-02  7.824044E-06

 displacements (vx,vy,vz) for set TIPMARKER and time  0.9444777E+01

         4  4.359746E-04  5.068050E-02  8.188418E-06

 displacements (vx,vy,vz) for set TIPMARKER and time  0.9547525E+01

         4  4.427840E-04  5.140322E-02  8.484641E-06

 displacements (vx,vy,vz) for set TIPMARKER and time  0.9701646E+01

         4  4.521282E-04  5.195961E-02  8.963182E-06

 displacements (vx,vy,vz) for set TIPMARKER and time  0.9855767E+01

         4  4.606534E-04  5.201966E-02  9.287991E-06

 displacements (vx,vy,vz) for set TIPMARKER and time  0.1000989E+02

         4  4.689191E-04  5.188640E-02  9.265128E-06

 displacements (vx,vy,vz) for set TIPMARKER and time  0.1016401E+02

         4  4.773744E-04  5.189039E-02  9.139070E-06

 displacements (vx,vy,vz) for set TIPMARKER and time  0.1031813E+02

         4  4.865001E-04  5.233284E-02  8.946991E-06

 displacements (vx,vy,vz) for set TIPMARKER and time  0.1047225E+02

         4  4.966221E-04  5.338328E-02  8.641503E-06

 displacements (vx,vy,vz) for set TIPMARKER and time  0.1062637E+02

         4  5.075782E-04  5.498497E-02  8.542900E-06

 displacements (vx,vy,vz) for set TIPMARKER and time  0.1078049E+02

         4  5.190337E-04  5.691622E-02  8.652098E-06

 displacements (vx,vy,vz) for set TIPMARKER and time  0.1093461E+02

         4  5.305056E-04  5.884578E-02  8.898326E-06

 displacements (vx,vy,vz) for set TIPMARKER and time  0.1108873E+02

         4  5.413742E-04  6.041533E-02  9.442343E-06

 displacements (vx,vy,vz) for set TIPMARKER and time  0.1124285E+02

         4  5.513193E-04  6.139873E-02  1.009428E-05

 displacements (vx,vy,vz) for set TIPMARKER and time  0.1139698E+02

         4  5.603121E-04  6.176036E-02  1.073169E-05

 displacements (vx,vy,vz) for set TIPMARKER and time  0.1155110E+02

         4  5.685490E-04  6.165585E-02  1.133086E-05

 displacements (vx,vy,vz) for set TIPMARKER and time  0.1170522E+02

         4  5.765742E-04  6.141328E-02  1.167907E-05

 displacements (vx,vy,vz) for set TIPMARKER and time  0.1185934E+02

         4  5.849697E-04  6.140055E-02  1.173925E-05

 displacements (vx,vy,vz) for set TIPMARKER and time  0.1201346E+02

         4  5.941303E-04  6.189592E-02  1.158650E-05

 displacements (vx,vy,vz) for set TIPMARKER and time  0.1216758E+02

         4  6.042713E-04  6.301789E-02  1.122406E-05

 displacements (vx,vy,vz) for set TIPMARKER and time  0.1232170E+02

         4  6.152212E-04  6.466061E-02  1.083473E-05

 displacements (vx,vy,vz) for set TIPMARKER and time  0.1247582E+02

         4  6.264901E-04  6.652935E-02  1.061619E-05

 displacements (vx,vy,vz) for set TIPMARKER and time  0.1262994E+02

         4  6.375409E-04  6.825738E-02  1.059213E-05

 displacements (vx,vy,vz) for set TIPMARKER and time  0.1266847E+02

         4  6.402168E-04  6.863121E-02  1.062753E-05

 displacements (vx,vy,vz) for set TIPMARKER and time  0.1270700E+02

         4  6.428326E-04  6.896808E-02  1.069397E-05

 displacements (vx,vy,vz) for set TIPMARKER and time  0.1276480E+02

         4  6.466289E-04  6.939557E-02  1.084114E-05

 displacements (vx,vy,vz) for set TIPMARKER and time  0.1285149E+02

         4  6.520404E-04  6.985420E-02  1.113026E-05

 displacements (vx,vy,vz) for set TIPMARKER and time  0.1288400E+02

         4  6.539831E-04  6.996929E-02  1.125184E-05

 displacements (vx,vy,vz) for set TIPMARKER and time  0.1291651E+02

         4  6.558802E-04  7.005392E-02  1.137719E-05

 displacements (vx,vy,vz) for set TIPMARKER and time  0.1296528E+02

         4  6.586443E-04  7.012672E-02  1.158541E-05

 displacements (vx,vy,vz) for set TIPMARKER and time  0.1303842E+02

         4  6.626191E-04  7.012819E-02  1.195778E-05

 displacements (vx,vy,vz) for set TIPMARKER and time  0.1314814E+02

         4  6.683172E-04  6.996120E-02  1.257339E-05

 displacements (vx,vy,vz) for set TIPMARKER and time  0.1331273E+02

         4  6.767197E-04  6.961879E-02  1.338955E-05

 displacements (vx,vy,vz) for set TIPMARKER and time  0.1347731E+02

         4  6.855358E-04  6.954996E-02  1.396770E-05

 displacements (vx,vy,vz) for set TIPMARKER and time  0.1364189E+02

         4  6.953030E-04  7.009933E-02  1.419157E-05

 displacements (vx,vy,vz) for set TIPMARKER and time  0.1380647E+02

         4  7.061538E-04  7.135932E-02  1.400382E-05

 displacements (vx,vy,vz) for set TIPMARKER and time  0.1397105E+02

         4  7.177725E-04  7.313113E-02  1.357721E-05

 displacements (vx,vy,vz) for set TIPMARKER and time  0.1401220E+02

         4  7.207458E-04  7.361929E-02  1.345345E-05

 displacements (vx,vy,vz) for set TIPMARKER and time  0.1405334E+02

         4  7.237188E-04  7.410695E-02  1.332139E-05

 displacements (vx,vy,vz) for set TIPMARKER and time  0.1411506E+02

         4  7.281429E-04  7.481641E-02  1.311649E-05

 displacements (vx,vy,vz) for set TIPMARKER and time  0.1420764E+02

         4  7.346140E-04  7.577682E-02  1.285209E-05

 displacements (vx,vy,vz) for set TIPMARKER and time  0.1434650E+02

         4  7.437581E-04  7.685188E-02  1.263970E-05

 displacements (vx,vy,vz) for set TIPMARKER and time  0.1455480E+02

         4  7.559771E-04  7.749006E-02  1.277264E-05

 displacements (vx,vy,vz) for set TIPMARKER and time  0.1476310E+02

         4  7.668022E-04  7.721308E-02  1.346635E-05

 displacements (vx,vy,vz) for set TIPMARKER and time  0.1497140E+02

         4  7.773846E-04  7.677235E-02  1.453975E-05

 displacements (vx,vy,vz) for set TIPMARKER and time  0.1517969E+02

         4  7.889750E-04  7.700765E-02  1.557228E-05

 displacements (vx,vy,vz) for set TIPMARKER and time  0.1538799E+02

         4  8.022043E-04  7.833099E-02  1.625485E-05

 displacements (vx,vy,vz) for set TIPMARKER and time  0.1544007E+02

         4  8.057696E-04  7.883077E-02  1.634890E-05

 displacements (vx,vy,vz) for set TIPMARKER and time  0.1549214E+02

         4  8.094035E-04  7.937751E-02  1.639753E-05

 displacements (vx,vy,vz) for set TIPMARKER and time  0.1557025E+02

         4  8.149199E-04  8.024687E-02  1.639298E-05

 displacements (vx,vy,vz) for set TIPMARKER and time  0.1568742E+02

         4  8.231834E-04  8.154607E-02  1.626232E-05

 displacements (vx,vy,vz) for set TIPMARKER and time  0.1586317E+02

         4  8.350065E-04  8.312378E-02  1.588134E-05

 displacements (vx,vy,vz) for set TIPMARKER and time  0.1590711E+02

         4  8.377984E-04  8.341062E-02  1.575933E-05

 displacements (vx,vy,vz) for set TIPMARKER and time  0.1595105E+02

         4  8.405048E-04  8.363984E-02  1.563508E-05

 displacements (vx,vy,vz) for set TIPMARKER and time  0.1601695E+02

         4  8.444003E-04  8.387259E-02  1.546243E-05

 displacements (vx,vy,vz) for set TIPMARKER and time  0.1611582E+02

         4  8.498945E-04  8.398483E-02  1.525719E-05

 displacements (vx,vy,vz) for set TIPMARKER and time  0.1626411E+02

         4  8.575228E-04  8.375030E-02  1.509761E-05

 displacements (vx,vy,vz) for set TIPMARKER and time  0.1648654E+02

         4  8.685971E-04  8.317226E-02  1.529837E-05

 displacements (vx,vy,vz) for set TIPMARKER and time  0.1670898E+02

         4  8.806279E-04  8.322908E-02  1.601636E-05

 displacements (vx,vy,vz) for set TIPMARKER and time  0.1693141E+02

         4  8.944636E-04  8.449697E-02  1.721738E-05

 displacements (vx,vy,vz) for set TIPMARKER and time  0.1715385E+02

         4  9.095946E-04  8.665791E-02  1.847969E-05

 displacements (vx,vy,vz) for set TIPMARKER and time  0.1737628E+02

         4  9.245741E-04  8.872772E-02  1.928198E-05

 displacements (vx,vy,vz) for set TIPMARKER and time  0.1759872E+02

         4  9.380395E-04  8.977734E-02  1.937766E-05

 displacements (vx,vy,vz) for set TIPMARKER and time  0.1782115E+02

         4  9.497229E-04  8.962790E-02  1.868197E-05

 displacements (vx,vy,vz) for set TIPMARKER and time  0.1804359E+02

         4  9.606965E-04  8.899630E-02  1.774071E-05

 displacements (vx,vy,vz) for set TIPMARKER and time  0.1826603E+02

         4  9.725189E-04  8.894694E-02  1.707767E-05

 displacements (vx,vy,vz) for set TIPMARKER and time  0.1848846E+02

         4  9.860934E-04  9.009670E-02  1.701708E-05

 displacements (vx,vy,vz) for set TIPMARKER and time  0.1871090E+02

         4  1.000982E-03  9.214856E-02  1.784505E-05

 displacements (vx,vy,vz) for set TIPMARKER and time  0.1893333E+02

         4  1.015703E-03  9.410621E-02  1.924054E-05

 displacements (vx,vy,vz) for set TIPMARKER and time  0.1915577E+02

         4  1.028924E-03  9.504178E-02  2.074623E-05

 displacements (vx,vy,vz) for set TIPMARKER and time  0.1937820E+02

         4  1.040432E-03  9.480363E-02  2.186464E-05

 displacements (vx,vy,vz) for set TIPMARKER and time  0.1960064E+02

         4  1.051312E-03  9.413864E-02  2.200960E-05

 displacements (vx,vy,vz) for set TIPMARKER and time  0.1982307E+02

         4  1.063126E-03  9.411675E-02  2.118944E-05

 displacements (vx,vy,vz) for set TIPMARKER and time  0.2004551E+02

         4  1.076674E-03  9.529536E-02  1.995368E-05

 displacements (vx,vy,vz) for set TIPMARKER and time  0.2026795E+02

         4  1.091390E-03  9.729008E-02  1.907172E-05

 displacements (vx,vy,vz) for set TIPMARKER and time  0.2049038E+02

         4  1.105773E-03  9.906889E-02  1.912458E-05

 displacements (vx,vy,vz) for set TIPMARKER and time  0.2071282E+02

         4  1.118579E-03  9.976294E-02  2.019183E-05

 displacements (vx,vy,vz) for set TIPMARKER and time  0.2093525E+02

         4  1.129802E-03  9.935798E-02  2.196251E-05

 displacements (vx,vy,vz) for set TIPMARKER and time  0.2115769E+02

         4  1.140713E-03  9.871785E-02  2.368113E-05

 displacements (vx,vy,vz) for set TIPMARKER and time  0.2138012E+02

         4  1.152693E-03  9.886666E-02  2.469883E-05

 displacements (vx,vy,vz) for set TIPMARKER and time  0.2160256E+02

         4  1.166359E-03  1.001894E-01  2.469576E-05

 displacements (vx,vy,vz) for set TIPMARKER and time  0.2182499E+02

         4  1.180961E-03  1.021333E-01  2.379412E-05

 displacements (vx,vy,vz) for set TIPMARKER and time  0.2204743E+02

         4  1.194851E-03  1.036268E-01  2.263386E-05

 displacements (vx,vy,vz) for set TIPMARKER and time  0.2238108E+02

         4  1.212829E-03  1.038847E-01  2.293634E-05

 displacements (vx,vy,vz) for set TIPMARKER and time  0.2271474E+02

         4  1.229264E-03  1.030398E-01  2.552397E-05

 displacements (vx,vy,vz) for set TIPMARKER and time  0.2304839E+02

         4  1.247662E-03  1.035968E-01  2.790486E-05

 displacements (vx,vy,vz) for set TIPMARKER and time  0.2338204E+02

         4  1.268644E-03  1.059822E-01  2.766083E-05

 displacements (vx,vy,vz) for set TIPMARKER and time  0.2371570E+02

         4  1.288983E-03  1.079395E-01  2.507523E-05

 displacements (vx,vy,vz) for set TIPMARKER and time  0.2404935E+02

         4  1.306460E-03  1.078686E-01  2.309340E-05

 displacements (vx,vy,vz) for set TIPMARKER and time  0.2413276E+02

         4  1.310449E-03  1.075711E-01  2.288110E-05

 displacements (vx,vy,vz) for set TIPMARKER and time  0.2421618E+02

         4  1.314432E-03  1.072776E-01  2.282009E-05

 displacements (vx,vy,vz) for set TIPMARKER and time  0.2434130E+02

         4  1.320645E-03  1.070125E-01  2.322108E-05

 displacements (vx,vy,vz) for set TIPMARKER and time  0.2452898E+02

         4  1.330929E-03  1.072963E-01  2.460038E-05

 displacements (vx,vy,vz) for set TIPMARKER and time  0.2481050E+02

         4  1.348134E-03  1.090356E-01  2.733468E-05

 displacements (vx,vy,vz) for set TIPMARKER and time  0.2488088E+02

         4  1.352656E-03  1.096275E-01  2.810621E-05

 displacements (vx,vy,vz) for set TIPMARKER and time  0.2495126E+02

         4  1.357160E-03  1.101999E-01  2.885217E-05

 displacements (vx,vy,vz) for set TIPMARKER and time  0.2505683E+02

         4  1.363714E-03  1.109170E-01  2.972358E-05

 displacements (vx,vy,vz) for set TIPMARKER and time  0.2521518E+02

         4  1.372835E-03  1.114978E-01  3.059192E-05

 displacements (vx,vy,vz) for set TIPMARKER and time  0.2545271E+02

         4  1.385018E-03  1.113022E-01  3.135591E-05

 displacements (vx,vy,vz) for set TIPMARKER and time  0.2569025E+02

         4  1.396479E-03  1.105806E-01  3.088828E-05

 displacements (vx,vy,vz) for set TIPMARKER and time  0.2592778E+02

         4  1.408851E-03  1.105185E-01  2.948352E-05

 displacements (vx,vy,vz) for set TIPMARKER and time  0.2616531E+02

         4  1.422955E-03  1.116834E-01  2.777696E-05

 displacements (vx,vy,vz) for set TIPMARKER and time  0.2640284E+02

         4  1.437861E-03  1.134660E-01  2.616800E-05

 displacements (vx,vy,vz) for set TIPMARKER and time  0.2675914E+02

         4  1.458351E-03  1.148517E-01  3.699490E-05

 displacements (vx,vy,vz) for set TIPMARKER and time  0.2711544E+02

         4  1.476092E-03  1.142094E-01  5.469755E-05

 displacements (vx,vy,vz) for set TIPMARKER and time  0.2747174E+02

         4  1.494212E-03  1.138475E-01  5.842894E-05

 displacements (vx,vy,vz) for set TIPMARKER and time  0.2782804E+02

         4  1.515185E-03  1.155464E-01  3.842159E-05

 displacements (vx,vy,vz) for set TIPMARKER and time  0.2818434E+02

         4  1.536717E-03  1.176568E-01  9.614562E-06

 displacements (vx,vy,vz) for set TIPMARKER and time  0.2854064E+02

         4  1.555614E-03  1.178862E-01  1.529153E-06

 displacements (vx,vy,vz) for set TIPMARKER and time  0.2889694E+02

         4  1.573043E-03  1.170669E-01  1.824426E-05

 displacements (vx,vy,vz) for set TIPMARKER and time  0.2925324E+02

         4  1.592409E-03  1.177029E-01  4.739977E-05

 displacements (vx,vy,vz) for set TIPMARKER and time  0.2934231E+02

         4  1.597782E-03  1.182468E-01  5.428667E-05

 displacements (vx,vy,vz) for set TIPMARKER and time  0.2943138E+02

         4  1.603283E-03  1.188841E-01  5.796985E-05

 displacements (vx,vy,vz) for set TIPMARKER and time  0.2952046E+02

         4  1.608787E-03  1.195302E-01  5.989712E-05

 displacements (vx,vy,vz) for set TIPMARKER and time  0.2960953E+02

         4  1.614191E-03  1.201038E-01  6.181339E-05

 displacements (vx,vy,vz) for set TIPMARKER and time  0.2974315E+02

         4  1.621923E-03  1.206723E-01  5.938565E-05

 displacements (vx,vy,vz) for set TIPMARKER and time  0.2994356E+02

         4  1.632488E-03  1.207502E-01  4.696713E-05

 displacements (vx,vy,vz) for set TIPMARKER and time  0.3000000E+02

         4  1.635225E-03  1.206124E-01  4.340423E-05
